
Predictions were generated on 03-May-2022 at 09:20:10 using OpenFAST, compiled as a 64-bit application using double precision at commit -128-NOTFOUND
 linked with  NWTC Subroutine Library; ElastoDyn; SubDyn

Description from the FAST input file: FAST Certification Test #19: NREL 5.0 MW Baseline Wind Turbine with OC3 Monopile RF Configuration, for use in offshore analysis

Time      	TwHt1TPxi 	TwHt1TPyi 	TTDspTwst 	PtfmSurge 	PtfmSway  	PtfmRoll  	PtfmPitch 	M2N1TDXss 	M2N1TDYss 	M1N1TDXss 	M1N1TDYss 
(s)       	(m)       	(m)       	(deg)     	(m)       	(m)       	(deg)     	(deg)     	(m)       	(m)       	(m)       	(m)       
    0.0000	 0.000E+00	 0.000E+00	 0.000E+00	 0.000E+00	 0.000E+00	 0.000E+00	 0.000E+00	 0.000E+00	 0.000E+00	 0.000E+00	 0.000E+00
    0.0500	-4.730E-09	-5.923E-25	 0.000E+00	-4.909E-08	 1.086E-24	-5.297E-24	 3.067E-07	-1.058E-07	 2.309E-25	-1.884E-07	 0.000E+00
    0.1000	 1.619E-08	-8.391E-25	 0.000E+00	-4.002E-07	 1.749E-24	-3.302E-24	 1.097E-06	-5.925E-07	 1.162E-24	-8.268E-07	 0.000E+00
    0.1500	 1.089E-07	 1.570E-24	 0.000E+00	-1.326E-06	-1.962E-24	 1.325E-23	 1.739E-06	-1.616E-06	-1.392E-25	-1.935E-06	 0.000E+00
    0.2000	 2.144E-07	 3.210E-24	 0.000E+00	-2.789E-06	-2.579E-24	 2.428E-24	 2.205E-06	-3.143E-06	-1.881E-24	-3.493E-06	 0.000E+00
    0.2500	 2.240E-07	 1.526E-24	 0.000E+00	-4.596E-06	 4.188E-24	-2.153E-23	 2.872E-06	-5.051E-06	 1.064E-24	-5.491E-06	 0.000E+00
    0.3000	 1.114E-07	-1.508E-24	 0.000E+00	-6.774E-06	 8.571E-24	-1.783E-23	 3.605E-06	-7.351E-06	 5.360E-24	-7.930E-06	 0.000E+00
    0.3500	-7.758E-08	-1.912E-24	 0.000E+00	-9.543E-06	 9.509E-25	 3.315E-24	 4.032E-06	-1.019E-05	 1.005E-24	-1.083E-05	 0.000E+00
    0.4000	-3.292E-07	 1.114E-24	 0.000E+00	-1.298E-05	-1.043E-23	 2.740E-23	 4.238E-06	-1.364E-05	-5.511E-24	-1.428E-05	 0.000E+00
    0.4500	-6.820E-07	 2.481E-24	 0.000E+00	-1.695E-05	-9.819E-24	 2.306E-23	 4.667E-06	-1.767E-05	-5.706E-24	-1.834E-05	 0.000E+00
    0.5000	-1.163E-06	 6.082E-25	 0.000E+00	-2.132E-05	 9.555E-25	 1.306E-24	 5.327E-06	-2.214E-05	 9.706E-25	-2.288E-05	 0.000E+00
    0.5500	-1.790E-06	-8.364E-26	 0.000E+00	-2.602E-05	 7.804E-24	-1.678E-23	 5.973E-06	-2.693E-05	 4.624E-24	-2.773E-05	 0.000E+00
    0.6000	-2.609E-06	 4.979E-24	 0.000E+00	-3.087E-05	 2.056E-24	-7.027E-24	 6.516E-06	-3.185E-05	 7.301E-25	-3.270E-05	 0.000E+00
    0.6500	-3.682E-06	 1.052E-23	 0.000E+00	-3.572E-05	-4.881E-24	 5.927E-24	 7.245E-06	-3.681E-05	-3.339E-24	-3.776E-05	 0.000E+00
    0.7000	-5.032E-06	 9.703E-24	 0.000E+00	-4.064E-05	 1.104E-24	-1.371E-24	 8.480E-06	-4.193E-05	 6.905E-25	-4.306E-05	 0.000E+00
    0.7500	-6.618E-06	 6.030E-24	 0.000E+00	-4.585E-05	 8.780E-24	-2.659E-23	 9.610E-06	-4.731E-05	 4.587E-24	-4.862E-05	 0.000E+00
    0.8000	-8.465E-06	 7.047E-24	 0.000E+00	-5.150E-05	 6.369E-24	-2.009E-23	 1.070E-05	-5.313E-05	 3.017E-24	-5.457E-05	 0.000E+00
    0.8500	-1.066E-05	 1.070E-23	 0.000E+00	-5.746E-05	-3.799E-24	-5.394E-24	 1.173E-05	-5.925E-05	-4.029E-24	-6.086E-05	 0.000E+00
    0.9000	-1.331E-05	 8.079E-24	 0.000E+00	-6.393E-05	-2.446E-24	 1.590E-23	 1.409E-05	-6.612E-05	 1.662E-25	-6.819E-05	 0.000E+00
    0.9500	-1.632E-05	 1.625E-24	 0.000E+00	-7.177E-05	 2.214E-24	 1.828E-23	 1.746E-05	-7.451E-05	 3.871E-24	-7.712E-05	 0.000E+00
    1.0000	-1.960E-05	 4.905E-24	 0.000E+00	-8.179E-05	-1.026E-23	 2.594E-23	 2.013E-05	-8.492E-05	-5.763E-24	-8.782E-05	 0.000E+00
    1.0500	-2.335E-05	 1.252E-23	 0.000E+00	-9.370E-05	-2.162E-23	 1.483E-23	 2.133E-05	-9.698E-05	-1.681E-23	-9.996E-05	 0.000E+00
    1.1000	-2.795E-05	 8.685E-24	 0.000E+00	-1.067E-04	-5.665E-24	 2.567E-24	 2.286E-05	-1.102E-04	-4.174E-24	-1.134E-04	 0.000E+00
    1.1500	-3.349E-05	-3.198E-24	 0.000E+00	-1.205E-04	 1.701E-23	-1.661E-24	 2.412E-05	-1.242E-04	 1.517E-23	-1.276E-04	 0.000E+00
    1.2000	-3.984E-05	-7.137E-24	 0.000E+00	-1.355E-04	 1.400E-23	 1.202E-23	 2.536E-05	-1.394E-04	 1.229E-23	-1.429E-04	 0.000E+00
    1.2500	-4.687E-05	 2.645E-24	 0.000E+00	-1.522E-04	-1.942E-23	 1.139E-23	 2.648E-05	-1.563E-04	-1.430E-23	-1.599E-04	 0.000E+00
    1.3000	-5.455E-05	 1.445E-23	 0.000E+00	-1.706E-04	-3.023E-23	 4.168E-23	 2.800E-05	-1.748E-04	-2.200E-23	-1.787E-04	 0.000E+00
    1.3500	-6.301E-05	 1.179E-23	 0.000E+00	-1.905E-04	 6.061E-24	 1.353E-23	 3.175E-05	-1.954E-04	 7.645E-24	-1.997E-04	 0.000E+00
    1.4000	-7.236E-05	 1.001E-23	 0.000E+00	-2.120E-04	 3.571E-23	-4.460E-23	 3.513E-05	-2.173E-04	 2.503E-23	-2.221E-04	 0.000E+00
    1.4500	-8.287E-05	 1.862E-23	 0.000E+00	-2.344E-04	 2.405E-23	-8.213E-23	 3.764E-05	-2.401E-04	 1.131E-23	-2.451E-04	 0.000E+00
    1.5000	-9.494E-05	 2.142E-23	 0.000E+00	-2.570E-04	 5.467E-24	-4.989E-23	 4.035E-05	-2.631E-04	-1.129E-24	-2.684E-04	 0.000E+00
    1.5500	-1.086E-04	 5.384E-24	 0.000E+00	-2.800E-04	 6.204E-24	-4.590E-23	 4.260E-05	-2.865E-04	 1.288E-25	-2.920E-04	 0.000E+00
    1.6000	-1.237E-04	-1.130E-23	 0.000E+00	-3.035E-04	 1.100E-23	-4.489E-23	 4.141E-05	-3.097E-04	 4.447E-24	-3.152E-04	 0.000E+00
    1.6500	-1.403E-04	-1.227E-23	 0.000E+00	-3.272E-04	-1.992E-24	 3.673E-23	 4.128E-05	-3.335E-04	 3.579E-24	-3.389E-04	 0.000E+00
    1.7000	-1.584E-04	-1.188E-23	 0.000E+00	-3.515E-04	-1.852E-23	 6.715E-23	 4.381E-05	-3.582E-04	-7.858E-24	-3.641E-04	 0.000E+00
    1.7500	-1.776E-04	-1.292E-23	 0.000E+00	-3.774E-04	-3.423E-23	 7.810E-23	 4.745E-05	-3.846E-04	-2.242E-23	-3.909E-04	 0.000E+00
    1.8000	-1.982E-04	-1.175E-23	 0.000E+00	-4.053E-04	-2.934E-23	 4.773E-23	 5.142E-05	-4.131E-04	-1.923E-23	-4.201E-04	 0.000E+00
    1.8500	-2.203E-04	-3.442E-24	 0.000E+00	-4.351E-04	 1.960E-24	-5.310E-23	 5.469E-05	-4.434E-04	-5.465E-24	-4.509E-04	 0.000E+00
    1.9000	-2.444E-04	 1.741E-24	 0.000E+00	-4.663E-04	 4.382E-23	-6.884E-23	 5.764E-05	-4.751E-04	 3.039E-23	-4.829E-04	 0.000E+00
    1.9500	-2.708E-04	-9.981E-24	 0.000E+00	-4.985E-04	 5.374E-23	-5.947E-23	 6.032E-05	-5.077E-04	 3.871E-23	-5.159E-04	 0.000E+00
    2.0000	-2.994E-04	-2.206E-23	 0.000E+00	-5.321E-04	 4.799E-24	-9.162E-23	 5.945E-05	-5.411E-04	-7.486E-24	-5.489E-04	 0.000E+00
    2.0500	-3.301E-04	-1.605E-23	 0.000E+00	-5.662E-04	-4.292E-23	-1.433E-23	 5.286E-05	-5.741E-04	-3.665E-23	-5.811E-04	 0.000E+00
    2.1000	-3.630E-04	-2.990E-23	 0.000E+00	-5.998E-04	 1.113E-23	 6.655E-23	 4.954E-05	-6.072E-04	 1.656E-23	-6.137E-04	 0.000E+00
    2.1500	-3.978E-04	-5.296E-23	 0.000E+00	-6.331E-04	 4.341E-23	 7.188E-23	 4.846E-05	-6.403E-04	 4.648E-23	-6.465E-04	 0.000E+00
    2.2000	-4.338E-04	-4.143E-23	 0.000E+00	-6.661E-04	-5.166E-23	 7.868E-23	 4.345E-05	-6.725E-04	-3.832E-23	-6.775E-04	 0.000E+00
    2.2500	-4.714E-04	-1.317E-23	 0.000E+00	-6.963E-04	-1.018E-22	 7.799E-23	 3.672E-05	-7.015E-04	-7.503E-23	-7.053E-04	 0.000E+00
    2.3000	-5.114E-04	-3.461E-23	 0.000E+00	-7.218E-04	 2.714E-23	-1.382E-22	 3.841E-05	-7.274E-04	 4.487E-24	-7.320E-04	 0.000E+00
    2.3500	-5.528E-04	-7.266E-23	 0.000E+00	-7.452E-04	 1.251E-22	-2.278E-22	 4.073E-05	-7.514E-04	 7.882E-23	-7.568E-04	 0.000E+00
    2.4000	-5.950E-04	-5.549E-23	 0.000E+00	-7.695E-04	 3.609E-23	-1.380E-23	 3.912E-05	-7.754E-04	 2.599E-23	-7.805E-04	 0.000E+00
    2.4500	-6.385E-04	-9.937E-24	 0.000E+00	-7.946E-04	-9.363E-23	 1.301E-22	 3.963E-05	-8.006E-04	-6.087E-23	-8.058E-04	 0.000E+00
    2.5000	-6.836E-04	-2.194E-23	 0.000E+00	-8.205E-04	-4.609E-23	-5.660E-24	 4.094E-05	-8.268E-04	-3.922E-23	-8.327E-04	 0.000E+00
    2.5500	-7.301E-04	-9.915E-23	 0.000E+00	-8.486E-04	 1.093E-22	-1.903E-22	 3.988E-05	-8.549E-04	 7.055E-23	-8.609E-04	 0.000E+00
    2.6000	-7.778E-04	-1.414E-22	 0.000E+00	-8.797E-04	 1.011E-22	-9.602E-23	 3.416E-05	-8.850E-04	 7.245E-23	-8.899E-04	 0.000E+00
    2.6500	-8.270E-04	-1.095E-22	 0.000E+00	-9.120E-04	-9.295E-23	 1.457E-22	 2.345E-05	-9.155E-04	-5.977E-23	-9.184E-04	 0.000E+00
    2.7000	-8.776E-04	-9.724E-23	 0.000E+00	-9.434E-04	-1.769E-22	 2.963E-22	 1.371E-05	-9.455E-04	-1.124E-22	-9.476E-04	 0.000E+00
    2.7500	-9.288E-04	-1.662E-22	 0.000E+00	-9.759E-04	-2.382E-23	 2.451E-22	 1.034E-05	-9.776E-04	 6.540E-24	-9.795E-04	 0.000E+00
    2.8000	-9.791E-04	-2.000E-22	 0.000E+00	-1.012E-03	 7.042E-23	 1.016E-22	 4.629E-06	-1.013E-03	 6.915E-23	-1.014E-03	 0.000E+00
    2.8500	-1.029E-03	-1.224E-22	 0.000E+00	-1.051E-03	-4.184E-23	 6.889E-23	 3.219E-06	-1.052E-03	-2.732E-23	-1.052E-03	 0.000E+00
    2.9000	-1.078E-03	-3.948E-23	 0.000E+00	-1.092E-03	-1.154E-22	-6.885E-24	 1.011E-05	-1.094E-03	-9.880E-23	-1.096E-03	 0.000E+00
    2.9500	-1.128E-03	-5.002E-23	 0.000E+00	-1.136E-03	 1.584E-23	-1.189E-22	 1.459E-05	-1.139E-03	 7.168E-25	-1.141E-03	 0.000E+00
    3.0000	-1.178E-03	-1.001E-22	 0.000E+00	-1.183E-03	 1.841E-22	-2.711E-22	 1.424E-05	-1.185E-03	 1.243E-22	-1.187E-03	 0.000E+00
    3.0500	-1.229E-03	-1.059E-22	 0.000E+00	-1.231E-03	 1.898E-22	-4.076E-22	 1.696E-05	-1.233E-03	 1.145E-22	-1.236E-03	 0.000E+00
    3.1000	-1.280E-03	-7.760E-23	 0.000E+00	-1.280E-03	 1.604E-23	-2.379E-22	 1.014E-05	-1.282E-03	-1.516E-23	-1.283E-03	 0.000E+00
    3.1500	-1.332E-03	-9.333E-23	 0.000E+00	-1.329E-03	-1.255E-22	 1.500E-22	-1.246E-05	-1.327E-03	-8.943E-23	-1.324E-03	 0.000E+00
    3.2000	-1.386E-03	-1.695E-22	 0.000E+00	-1.370E-03	-7.322E-23	 3.444E-22	-3.153E-05	-1.364E-03	-2.148E-23	-1.359E-03	 0.000E+00
    3.2500	-1.440E-03	-2.293E-22	 0.000E+00	-1.402E-03	 1.386E-23	 2.164E-22	-3.559E-05	-1.396E-03	 3.817E-23	-1.390E-03	 0.000E+00
    3.3000	-1.491E-03	-1.917E-22	 0.000E+00	-1.431E-03	-1.289E-22	 8.760E-23	-4.047E-05	-1.425E-03	-9.995E-23	-1.419E-03	 0.000E+00
    3.3500	-1.539E-03	-8.859E-23	 0.000E+00	-1.461E-03	-3.039E-22	 6.397E-22	-4.644E-05	-1.453E-03	-1.768E-22	-1.446E-03	 0.000E+00
    3.4000	-1.585E-03	-4.641E-23	 0.000E+00	-1.483E-03	-1.438E-22	 4.609E-22	-5.206E-05	-1.474E-03	-6.420E-23	-1.466E-03	 0.000E+00
    3.4500	-1.632E-03	-1.183E-22	 0.000E+00	-1.494E-03	 3.619E-22	-6.308E-22	-3.660E-05	-1.488E-03	 2.313E-22	-1.483E-03	 0.000E+00
    3.5000	-1.679E-03	-1.401E-22	 0.000E+00	-1.502E-03	 4.714E-22	-1.262E-21	-1.797E-05	-1.500E-03	 2.632E-22	-1.499E-03	 0.000E+00
    3.5500	-1.723E-03	-1.328E-24	 0.000E+00	-1.518E-03	-2.982E-23	-3.230E-22	-2.516E-05	-1.514E-03	-7.134E-23	-1.512E-03	 0.000E+00
    3.6000	-1.765E-03	 1.216E-22	 0.000E+00	-1.536E-03	-3.549E-22	 7.395E-22	-4.374E-05	-1.529E-03	-1.978E-22	-1.523E-03	 0.000E+00
    3.6500	-1.809E-03	 1.358E-23	 0.000E+00	-1.548E-03	-2.079E-23	 3.957E-22	-5.802E-05	-1.539E-03	 2.567E-23	-1.531E-03	 0.000E+00
    3.7000	-1.853E-03	-2.567E-22	 0.000E+00	-1.555E-03	 3.704E-22	-6.951E-22	-6.961E-05	-1.544E-03	 2.275E-22	-1.536E-03	 0.000E+00
    3.7500	-1.893E-03	-3.369E-22	 0.000E+00	-1.563E-03	 8.936E-23	-2.842E-22	-8.620E-05	-1.550E-03	 4.157E-23	-1.539E-03	 0.000E+00
    3.8000	-1.929E-03	-1.301E-22	 0.000E+00	-1.576E-03	-5.690E-22	 1.451E-21	-9.758E-05	-1.562E-03	-3.152E-22	-1.548E-03	 0.000E+00
    3.8500	-1.959E-03	 3.105E-23	 0.000E+00	-1.592E-03	-6.621E-22	 1.635E-21	-9.456E-05	-1.578E-03	-3.677E-22	-1.566E-03	 0.000E+00
    3.9000	-1.985E-03	-7.383E-23	 0.000E+00	-1.613E-03	 6.413E-23	 1.881E-23	-6.929E-05	-1.603E-03	 5.496E-23	-1.595E-03	 0.000E+00
    3.9500	-2.007E-03	-1.561E-22	 0.000E+00	-1.642E-03	 6.016E-22	-1.324E-21	-5.050E-05	-1.635E-03	 3.517E-22	-1.630E-03	 0.000E+00
    4.0000	-2.026E-03	 4.864E-23	 0.000E+00	-1.679E-03	 3.460E-22	-9.954E-22	-4.108E-05	-1.673E-03	 1.770E-22	-1.669E-03	 0.000E+00
    4.0500	-2.046E-03	 2.940E-22	 0.000E+00	-1.718E-03	-1.158E-22	-3.427E-22	-3.473E-05	-1.713E-03	-1.300E-22	-1.710E-03	 0.000E+00
    4.1000	-2.066E-03	 2.608E-22	 0.000E+00	-1.760E-03	-9.068E-23	 9.185E-23	-3.543E-05	-1.755E-03	-6.641E-23	-1.752E-03	 0.000E+00
    4.1500	-2.084E-03	 1.707E-23	 0.000E+00	-1.807E-03	 2.251E-22	-1.124E-22	-4.707E-05	-1.800E-03	 1.758E-22	-1.795E-03	 0.000E+00
    4.2000	-2.100E-03	-6.878E-23	 0.000E+00	-1.860E-03	 1.651E-22	-2.256E-22	-6.524E-05	-1.850E-03	 1.125E-22	-1.841E-03	 0.000E+00
    4.2500	-2.113E-03	 5.580E-23	 0.000E+00	-1.914E-03	-2.432E-22	 2.394E-22	-7.418E-05	-1.902E-03	-1.803E-22	-1.891E-03	 0.000E+00
    4.3000	-2.123E-03	 1.269E-22	 0.000E+00	-1.964E-03	-4.410E-22	 9.074E-22	-7.161E-05	-1.952E-03	-2.652E-22	-1.942E-03	 0.000E+00
    4.3500	-2.130E-03	 5.530E-23	 0.000E+00	-2.009E-03	-1.776E-22	 9.851E-22	-5.794E-05	-2.000E-03	-4.439E-23	-1.992E-03	 0.000E+00
    4.4000	-2.134E-03	 6.259E-23	 0.000E+00	-2.051E-03	 1.018E-22	 8.483E-23	-3.416E-05	-2.045E-03	 9.282E-23	-2.040E-03	 0.000E+00
    4.4500	-2.137E-03	 2.488E-22	 0.000E+00	-2.088E-03	 7.660E-23	-5.681E-22	-1.476E-05	-2.086E-03	 2.116E-26	-2.083E-03	 0.000E+00
    4.5000	-2.140E-03	 3.403E-22	 0.000E+00	-2.121E-03	 7.110E-23	-8.785E-22	 8.821E-06	-2.123E-03	-4.001E-23	-2.124E-03	 0.000E+00
    4.5500	-2.145E-03	 2.886E-22	 0.000E+00	-2.154E-03	 1.690E-22	-3.108E-22	 2.433E-05	-2.157E-03	 1.090E-22	-2.162E-03	 0.000E+00
    4.6000	-2.150E-03	 2.600E-22	 0.000E+00	-2.188E-03	 1.594E-22	-1.472E-23	 2.894E-05	-2.192E-03	 1.365E-22	-2.197E-03	 0.000E+00
    4.6500	-2.158E-03	 2.846E-22	 0.000E+00	-2.224E-03	 2.397E-23	-1.348E-22	 2.921E-05	-2.229E-03	 3.560E-24	-2.233E-03	 0.000E+00
    4.7000	-2.166E-03	 1.993E-22	 0.000E+00	-2.262E-03	-3.012E-23	-4.957E-22	 2.361E-05	-2.265E-03	-7.855E-23	-2.268E-03	 0.000E+00
    4.7500	-2.175E-03	 3.827E-23	 0.000E+00	-2.300E-03	 4.974E-24	-5.982E-23	 1.848E-05	-2.303E-03	-3.999E-24	-2.305E-03	 0.000E+00
    4.8000	-2.185E-03	 3.909E-23	 0.000E+00	-2.338E-03	-1.287E-22	 9.573E-22	 1.521E-05	-2.340E-03	-5.469E-25	-2.341E-03	 0.000E+00
    4.8500	-2.194E-03	 1.702E-22	 0.000E+00	-2.374E-03	-3.089E-22	 1.114E-21	 1.921E-05	-2.376E-03	-1.296E-22	-2.378E-03	 0.000E+00
    4.9000	-2.205E-03	 1.699E-22	 0.000E+00	-2.406E-03	-1.698E-22	 2.289E-24	 3.203E-05	-2.411E-03	-1.476E-22	-2.414E-03	 0.000E+00
    4.9500	-2.216E-03	 6.961E-23	 0.000E+00	-2.438E-03	 1.529E-22	-8.262E-22	 5.002E-05	-2.446E-03	 3.502E-23	-2.452E-03	 0.000E+00
    5.0000	-2.228E-03	 1.563E-22	 0.000E+00	-2.469E-03	 2.090E-22	-3.087E-22	 5.344E-05	-2.477E-03	 1.399E-22	-2.483E-03	 0.000E+00
    5.0500	-2.244E-03	 3.433E-22	 0.000E+00	-2.494E-03	 7.849E-23	 2.358E-22	 5.338E-05	-2.502E-03	 1.023E-22	-2.508E-03	 0.000E+00
    5.1000	-2.264E-03	 3.062E-22	 0.000E+00	-2.512E-03	 1.170E-22	-3.276E-22	 6.023E-05	-2.521E-03	 6.407E-23	-2.529E-03	 0.000E+00
    5.1500	-2.286E-03	 7.612E-23	 0.000E+00	-2.528E-03	 2.094E-22	-1.269E-21	 5.830E-05	-2.537E-03	 2.781E-23	-2.545E-03	 0.000E+00
    5.2000	-2.310E-03	 5.099E-24	 0.000E+00	-2.546E-03	 9.390E-23	-4.039E-22	 4.646E-05	-2.553E-03	 3.111E-23	-2.558E-03	 0.000E+00
    5.2500	-2.335E-03	 1.188E-22	 0.000E+00	-2.562E-03	-1.872E-22	 9.266E-22	 2.939E-05	-2.566E-03	-4.518E-23	-2.569E-03	 0.000E+00
    5.3000	-2.362E-03	 5.806E-23	 0.000E+00	-2.572E-03	-1.823E-22	 9.250E-22	 2.388E-05	-2.575E-03	-4.963E-23	-2.577E-03	 0.000E+00
    5.3500	-2.391E-03	-2.218E-22	 0.000E+00	-2.576E-03	 2.258E-23	-3.285E-22	 2.962E-05	-2.581E-03	-1.913E-23	-2.584E-03	 0.000E+00
    5.4000	-2.420E-03	-2.990E-22	 0.000E+00	-2.581E-03	-4.528E-24	-4.838E-22	 3.546E-05	-2.587E-03	-7.063E-23	-2.592E-03	 0.000E+00
    5.4500	-2.448E-03	-4.419E-23	 0.000E+00	-2.590E-03	-2.848E-22	 9.953E-22	 3.378E-05	-2.595E-03	-1.176E-22	-2.599E-03	 0.000E+00
    5.5000	-2.478E-03	 7.121E-23	 0.000E+00	-2.598E-03	-2.141E-22	 1.195E-21	 3.303E-05	-2.603E-03	-3.888E-23	-2.607E-03	 0.000E+00
    5.5500	-2.511E-03	-1.637E-22	 0.000E+00	-2.604E-03	 2.226E-22	-7.672E-22	 4.052E-05	-2.610E-03	 9.829E-23	-2.616E-03	 0.000E+00
    5.6000	-2.546E-03	-2.870E-22	 0.000E+00	-2.611E-03	 3.867E-22	-1.600E-21	 3.102E-05	-2.616E-03	 1.427E-22	-2.621E-03	 0.000E+00
    5.6500	-2.581E-03	-6.523E-23	 0.000E+00	-2.620E-03	 4.626E-23	 6.302E-23	 8.261E-06	-2.621E-03	 4.814E-23	-2.622E-03	 0.000E+00
    5.7000	-2.618E-03	 3.912E-23	 0.000E+00	-2.627E-03	-1.744E-22	 1.220E-21	 1.934E-07	-2.627E-03	 1.059E-24	-2.627E-03	 0.000E+00
    5.7500	-2.655E-03	-2.144E-22	 0.000E+00	-2.636E-03	-2.105E-23	-2.579E-22	-8.267E-06	-2.635E-03	-5.109E-23	-2.634E-03	 0.000E+00
    5.8000	-2.690E-03	-3.745E-22	 0.000E+00	-2.648E-03	 3.998E-23	-7.383E-22	-2.561E-05	-2.644E-03	-5.606E-23	-2.640E-03	 0.000E+00
    5.8500	-2.723E-03	-2.487E-22	 0.000E+00	-2.659E-03	-3.886E-23	 3.895E-22	-3.153E-05	-2.654E-03	 1.937E-23	-2.649E-03	 0.000E+00
    5.9000	-2.756E-03	-1.500E-22	 0.000E+00	-2.666E-03	-8.865E-23	 1.060E-21	-2.572E-05	-2.662E-03	 4.236E-23	-2.659E-03	 0.000E+00
    5.9500	-2.788E-03	-3.080E-22	 0.000E+00	-2.674E-03	-2.748E-23	 1.351E-22	-1.861E-05	-2.671E-03	-7.377E-24	-2.669E-03	 0.000E+00
    6.0000	-2.819E-03	-4.201E-22	 0.000E+00	-2.684E-03	-3.768E-23	-5.959E-22	-1.517E-05	-2.682E-03	-1.056E-22	-2.680E-03	 0.000E+00
    6.0500	-2.848E-03	-2.551E-22	 0.000E+00	-2.698E-03	-1.197E-22	 6.032E-24	-1.497E-05	-2.696E-03	-9.688E-23	-2.695E-03	 0.000E+00
    6.1000	-2.878E-03	-9.900E-23	 0.000E+00	-2.717E-03	-5.302E-23	 7.850E-22	-1.050E-05	-2.716E-03	 4.663E-23	-2.717E-03	 0.000E+00
    6.1500	-2.906E-03	-2.099E-22	 0.000E+00	-2.743E-03	 1.128E-22	 2.103E-22	-1.275E-05	-2.742E-03	 1.196E-22	-2.742E-03	 0.000E+00
    6.2000	-2.934E-03	-3.440E-22	 0.000E+00	-2.776E-03	 1.500E-22	-7.857E-22	-1.780E-05	-2.773E-03	 4.028E-23	-2.771E-03	 0.000E+00
    6.2500	-2.961E-03	-1.930E-22	 0.000E+00	-2.810E-03	-5.532E-23	-3.825E-22	-3.264E-05	-2.805E-03	-9.403E-23	-2.800E-03	 0.000E+00
    6.3000	-2.987E-03	-4.088E-23	 0.000E+00	-2.842E-03	-1.548E-22	 3.611E-22	-4.395E-05	-2.835E-03	-8.669E-23	-2.829E-03	 0.000E+00
    6.3500	-3.013E-03	-1.605E-22	 0.000E+00	-2.871E-03	 4.372E-24	 4.772E-22	-4.904E-05	-2.864E-03	 6.002E-23	-2.857E-03	 0.000E+00
    6.4000	-3.035E-03	-2.989E-22	 0.000E+00	-2.902E-03	 8.215E-23	 1.268E-22	-4.407E-05	-2.895E-03	 7.707E-23	-2.889E-03	 0.000E+00
    6.4500	-3.055E-03	-1.487E-22	 0.000E+00	-2.935E-03	-1.204E-22	-1.419E-22	-3.480E-05	-2.930E-03	-1.196E-22	-2.925E-03	 0.000E+00
    6.5000	-3.072E-03	 5.790E-23	 0.000E+00	-2.971E-03	-1.422E-22	-1.212E-22	-2.454E-05	-2.967E-03	-1.355E-22	-2.964E-03	 0.000E+00
    6.5500	-3.089E-03	-9.778E-24	 0.000E+00	-3.005E-03	 2.066E-22	-1.263E-22	-1.218E-05	-3.003E-03	 1.610E-22	-3.001E-03	 0.000E+00
    6.6000	-3.106E-03	-1.573E-22	 0.000E+00	-3.035E-03	 3.755E-22	-6.147E-22	-4.065E-06	-3.034E-03	 2.449E-22	-3.034E-03	 0.000E+00
    6.6500	-3.125E-03	-4.391E-23	 0.000E+00	-3.061E-03	 4.420E-23	-3.676E-22	-3.897E-06	-3.061E-03	-6.452E-24	-3.060E-03	 0.000E+00
    6.7000	-3.145E-03	 1.392E-22	 0.000E+00	-3.087E-03	-2.895E-22	 4.556E-22	-1.055E-05	-3.085E-03	-1.908E-22	-3.084E-03	 0.000E+00
    6.7500	-3.164E-03	 2.981E-23	 0.000E+00	-3.111E-03	-1.507E-22	 4.417E-22	-2.389E-05	-3.108E-03	-7.761E-23	-3.104E-03	 0.000E+00
    6.8000	-3.182E-03	-1.702E-22	 0.000E+00	-3.133E-03	 1.408E-22	 2.127E-23	-3.726E-05	-3.127E-03	 1.146E-22	-3.122E-03	 0.000E+00
    6.8500	-3.199E-03	-6.862E-23	 0.000E+00	-3.151E-03	 2.863E-23	 1.015E-22	-3.857E-05	-3.144E-03	 3.777E-23	-3.139E-03	 0.000E+00
    6.9000	-3.215E-03	 1.852E-22	 0.000E+00	-3.165E-03	-2.648E-22	 4.273E-22	-2.567E-05	-3.162E-03	-1.751E-22	-3.158E-03	 0.000E+00
    6.9500	-3.227E-03	 2.278E-22	 0.000E+00	-3.182E-03	-2.226E-22	 4.091E-22	-1.302E-05	-3.180E-03	-1.371E-22	-3.178E-03	 0.000E+00
    7.0000	-3.239E-03	 1.191E-22	 0.000E+00	-3.200E-03	 1.306E-22	-2.713E-22	-6.332E-06	-3.199E-03	 8.131E-23	-3.198E-03	 0.000E+00
    7.0500	-3.252E-03	 1.637E-22	 0.000E+00	-3.215E-03	 3.620E-22	-7.985E-22	 7.755E-06	-3.216E-03	 2.077E-22	-3.217E-03	 0.000E+00
    7.1000	-3.266E-03	 3.168E-22	 0.000E+00	-3.230E-03	 2.035E-22	-6.092E-22	 2.275E-05	-3.234E-03	 9.924E-23	-3.238E-03	 0.000E+00
    7.1500	-3.280E-03	 3.059E-22	 0.000E+00	-3.250E-03	-9.092E-23	 1.871E-24	 2.016E-05	-3.253E-03	-7.335E-23	-3.257E-03	 0.000E+00
    7.2000	-3.295E-03	 1.450E-22	 0.000E+00	-3.275E-03	-1.129E-22	 2.124E-22	 6.604E-06	-3.277E-03	-7.314E-23	-3.278E-03	 0.000E+00
    7.2500	-3.311E-03	 1.156E-22	 0.000E+00	-3.301E-03	-1.176E-23	 1.556E-22	-6.826E-06	-3.300E-03	 9.740E-24	-3.299E-03	 0.000E+00
    7.3000	-3.327E-03	 1.910E-22	 0.000E+00	-3.324E-03	-9.355E-24	 2.038E-22	-2.068E-05	-3.320E-03	 1.469E-23	-3.317E-03	 0.000E+00
    7.3500	-3.343E-03	 1.294E-22	 0.000E+00	-3.342E-03	-5.403E-23	 1.581E-22	-2.832E-05	-3.337E-03	-2.675E-23	-3.333E-03	 0.000E+00
    7.4000	-3.357E-03	 6.686E-23	 0.000E+00	-3.356E-03	-1.391E-22	 3.547E-22	-3.178E-05	-3.351E-03	-8.390E-23	-3.346E-03	 0.000E+00
    7.4500	-3.369E-03	 2.412E-22	 0.000E+00	-3.365E-03	-2.419E-22	 6.471E-22	-3.157E-05	-3.360E-03	-1.224E-22	-3.355E-03	 0.000E+00
    7.5000	-3.381E-03	 4.164E-22	 0.000E+00	-3.369E-03	-3.941E-23	 8.144E-23	-2.111E-05	-3.365E-03	-2.427E-23	-3.361E-03	 0.000E+00
    7.5500	-3.392E-03	 3.224E-22	 0.000E+00	-3.366E-03	 3.715E-22	-1.082E-21	-9.618E-06	-3.365E-03	 1.911E-22	-3.363E-03	 0.000E+00
    7.6000	-3.404E-03	 1.905E-22	 0.000E+00	-3.360E-03	 4.645E-22	-1.315E-21	-4.105E-06	-3.360E-03	 2.430E-22	-3.359E-03	 0.000E+00
    7.6500	-3.416E-03	 3.154E-22	 0.000E+00	-3.353E-03	 9.022E-23	-2.949E-22	 4.205E-06	-3.354E-03	 4.456E-23	-3.356E-03	 0.000E+00
    7.7000	-3.428E-03	 4.687E-22	 0.000E+00	-3.351E-03	-2.288E-22	 5.396E-22	 9.909E-06	-3.353E-03	-1.266E-22	-3.356E-03	 0.000E+00
    7.7500	-3.439E-03	 2.650E-22	 0.000E+00	-3.356E-03	-2.377E-23	-7.977E-24	 4.412E-06	-3.357E-03	-1.655E-23	-3.359E-03	 0.000E+00
    7.8000	-3.451E-03	-7.663E-23	 0.000E+00	-3.367E-03	 2.975E-22	-7.179E-22	-6.212E-06	-3.366E-03	 1.599E-22	-3.365E-03	 0.000E+00
    7.8500	-3.463E-03	-6.578E-23	 0.000E+00	-3.378E-03	 4.791E-23	 1.389E-23	-1.690E-05	-3.375E-03	 4.274E-23	-3.373E-03	 0.000E+00
    7.9000	-3.474E-03	 1.601E-22	 0.000E+00	-3.388E-03	-4.465E-22	 1.270E-21	-2.812E-05	-3.383E-03	-2.320E-22	-3.379E-03	 0.000E+00
    7.9500	-3.485E-03	 1.175E-22	 0.000E+00	-3.395E-03	-4.293E-22	 1.139E-21	-3.865E-05	-3.389E-03	-2.288E-22	-3.383E-03	 0.000E+00
    8.0000	-3.494E-03	-1.014E-22	 0.000E+00	-3.399E-03	 2.159E-25	-8.303E-23	-4.613E-05	-3.392E-03	-1.144E-23	-3.386E-03	 0.000E+00
    8.0500	-3.501E-03	-1.488E-23	 0.000E+00	-3.402E-03	 1.572E-22	-2.119E-22	-4.244E-05	-3.395E-03	 1.031E-22	-3.390E-03	 0.000E+00
    8.1000	-3.506E-03	 2.757E-22	 0.000E+00	-3.405E-03	 4.471E-23	 5.929E-23	-2.263E-05	-3.402E-03	 4.935E-23	-3.400E-03	 0.000E+00
    8.1500	-3.508E-03	 3.546E-22	 0.000E+00	-3.414E-03	 5.686E-23	-2.262E-22	-5.283E-06	-3.414E-03	 2.317E-23	-3.413E-03	 0.000E+00
    8.2000	-3.510E-03	 1.980E-22	 0.000E+00	-3.426E-03	 2.541E-22	-1.194E-21	-3.543E-06	-3.425E-03	 7.049E-23	-3.424E-03	 0.000E+00
    8.2500	-3.513E-03	 1.480E-22	 0.000E+00	-3.433E-03	 3.983E-22	-9.595E-22	 4.408E-07	-3.433E-03	 2.332E-22	-3.433E-03	 0.000E+00
    8.3000	-3.519E-03	 2.064E-22	 0.000E+00	-3.438E-03	 2.355E-22	-1.774E-22	 6.392E-06	-3.439E-03	 1.770E-22	-3.442E-03	 0.000E+00
    8.3500	-3.525E-03	 9.200E-23	 0.000E+00	-3.448E-03	-1.119E-22	 8.282E-23	-3.878E-06	-3.448E-03	-8.107E-23	-3.448E-03	 0.000E+00
    8.4000	-3.529E-03	-1.260E-22	 0.000E+00	-3.462E-03	-3.451E-22	 5.495E-22	-3.298E-05	-3.456E-03	-2.343E-22	-3.450E-03	 0.000E+00
    8.4500	-3.533E-03	-2.132E-22	 0.000E+00	-3.468E-03	-3.040E-22	 8.105E-22	-5.482E-05	-3.459E-03	-1.655E-22	-3.449E-03	 0.000E+00
    8.5000	-3.537E-03	-1.773E-22	 0.000E+00	-3.461E-03	-1.129E-22	 9.597E-22	-6.545E-05	-3.450E-03	 1.205E-23	-3.440E-03	 0.000E+00
    8.5500	-3.539E-03	-2.102E-22	 0.000E+00	-3.443E-03	-4.556E-23	 5.590E-22	-6.806E-05	-3.432E-03	 2.223E-23	-3.422E-03	 0.000E+00
    8.6000	-3.537E-03	-2.128E-22	 0.000E+00	-3.420E-03	-2.034E-22	 1.874E-22	-5.848E-05	-3.410E-03	-1.508E-22	-3.402E-03	 0.000E+00
    8.6500	-3.533E-03	 1.995E-23	 0.000E+00	-3.394E-03	-3.243E-22	 2.573E-22	-4.712E-05	-3.387E-03	-2.400E-22	-3.380E-03	 0.000E+00
    8.7000	-3.526E-03	 2.431E-22	 0.000E+00	-3.367E-03	 1.584E-23	-1.431E-22	-2.554E-05	-3.363E-03	 1.016E-24	-3.361E-03	 0.000E+00
    8.7500	-3.519E-03	 1.442E-22	 0.000E+00	-3.343E-03	 6.166E-22	-1.209E-21	 1.338E-06	-3.344E-03	 3.846E-22	-3.346E-03	 0.000E+00
    8.8000	-3.511E-03	-5.825E-23	 0.000E+00	-3.329E-03	 6.826E-22	-1.867E-21	 1.934E-05	-3.332E-03	 3.575E-22	-3.337E-03	 0.000E+00
    8.8500	-3.503E-03	 1.134E-24	 0.000E+00	-3.326E-03	 9.560E-23	-7.155E-22	 1.854E-05	-3.330E-03	-2.326E-24	-3.334E-03	 0.000E+00
    8.9000	-3.497E-03	 7.233E-23	 0.000E+00	-3.332E-03	-3.457E-22	 6.583E-22	 3.426E-06	-3.333E-03	-2.149E-22	-3.335E-03	 0.000E+00
    8.9500	-3.492E-03	-2.416E-22	 0.000E+00	-3.343E-03	-1.351E-22	 6.454E-22	-2.093E-05	-3.340E-03	-3.265E-23	-3.338E-03	 0.000E+00
    9.0000	-3.487E-03	-6.667E-22	 0.000E+00	-3.353E-03	 9.229E-23	 2.915E-22	-4.963E-05	-3.346E-03	 9.752E-23	-3.339E-03	 0.000E+00
    9.0500	-3.480E-03	-6.517E-22	 0.000E+00	-3.361E-03	-3.269E-22	 1.032E-21	-7.307E-05	-3.349E-03	-1.614E-22	-3.337E-03	 0.000E+00
    9.1000	-3.469E-03	-2.968E-22	 0.000E+00	-3.359E-03	-8.802E-22	 2.093E-21	-9.137E-05	-3.345E-03	-5.017E-22	-3.330E-03	 0.000E+00
    9.1500	-3.456E-03	-2.163E-22	 0.000E+00	-3.346E-03	-5.256E-22	 1.431E-21	-9.127E-05	-3.331E-03	-2.777E-22	-3.317E-03	 0.000E+00
    9.2000	-3.439E-03	-3.613E-22	 0.000E+00	-3.322E-03	 3.331E-22	-5.960E-22	-6.741E-05	-3.311E-03	 2.046E-22	-3.301E-03	 0.000E+00
    9.2500	-3.418E-03	-1.796E-22	 0.000E+00	-3.294E-03	 5.901E-22	-1.466E-21	-3.134E-05	-3.290E-03	 3.250E-22	-3.286E-03	 0.000E+00
    9.3000	-3.395E-03	 2.981E-22	 0.000E+00	-3.271E-03	 1.947E-22	-7.415E-22	 3.329E-06	-3.272E-03	 8.531E-23	-3.274E-03	 0.000E+00
    9.3500	-3.373E-03	 3.996E-22	 0.000E+00	-3.253E-03	 1.215E-22	-8.364E-22	 3.040E-05	-3.258E-03	 1.921E-23	-3.264E-03	 0.000E+00
    9.4000	-3.352E-03	-1.191E-24	 0.000E+00	-3.242E-03	 5.743E-22	-1.787E-21	 4.722E-05	-3.250E-03	 2.554E-22	-3.259E-03	 0.000E+00
    9.4500	-3.335E-03	-3.245E-22	 0.000E+00	-3.242E-03	 5.699E-22	-1.733E-21	 5.173E-05	-3.251E-03	 3.004E-22	-3.261E-03	 0.000E+00
    9.5000	-3.318E-03	-2.988E-22	 0.000E+00	-3.259E-03	-1.601E-22	 6.078E-22	 4.294E-05	-3.266E-03	-7.882E-23	-3.275E-03	 0.000E+00
    9.5500	-3.301E-03	-3.337E-22	 0.000E+00	-3.292E-03	-8.833E-22	 2.646E-21	 1.698E-05	-3.295E-03	-4.365E-22	-3.298E-03	 0.000E+00
    9.6000	-3.284E-03	-6.537E-22	 0.000E+00	-3.330E-03	-8.035E-22	 2.486E-21	-1.472E-05	-3.327E-03	-3.993E-22	-3.323E-03	 0.000E+00
    9.6500	-3.269E-03	-8.646E-22	 0.000E+00	-3.360E-03	-2.871E-22	 8.395E-22	-2.333E-05	-3.356E-03	-1.573E-22	-3.351E-03	 0.000E+00
    9.7000	-3.252E-03	-5.680E-22	 0.000E+00	-3.385E-03	-1.907E-22	 5.989E-22	-1.242E-05	-3.383E-03	-1.012E-22	-3.380E-03	 0.000E+00
    9.7500	-3.232E-03	-5.601E-23	 0.000E+00	-3.408E-03	-4.261E-22	 9.185E-22	-8.287E-06	-3.406E-03	-2.453E-22	-3.403E-03	 0.000E+00
    9.8000	-3.211E-03	 2.357E-22	 0.000E+00	-3.422E-03	-1.197E-22	 7.090E-22	-5.886E-07	-3.421E-03	-1.851E-23	-3.418E-03	 0.000E+00
    9.8500	-3.193E-03	 3.040E-22	 0.000E+00	-3.420E-03	 7.349E-22	-1.673E-21	 3.027E-05	-3.424E-03	 4.292E-22	-3.426E-03	 0.000E+00
    9.9000	-3.178E-03	 4.123E-22	 0.000E+00	-3.409E-03	 1.193E-21	-3.699E-21	 7.576E-05	-3.421E-03	 5.814E-22	-3.432E-03	 0.000E+00
    9.9500	-3.164E-03	 5.538E-22	 0.000E+00	-3.406E-03	 7.210E-22	-2.684E-21	 9.714E-05	-3.421E-03	 3.106E-22	-3.436E-03	 0.000E+00
   10.0000	-3.151E-03	 5.056E-22	 0.000E+00	-3.413E-03	-1.841E-23	-1.455E-22	 9.372E-05	-3.428E-03	-8.210E-24	-3.441E-03	 0.000E+00
   10.0500	-3.144E-03	 1.644E-22	 0.000E+00	-3.424E-03	-1.210E-22	 3.491E-22	 1.031E-04	-3.440E-03	-6.219E-23	-3.455E-03	 0.000E+00
   10.1000	-3.142E-03	-2.276E-22	 0.000E+00	-3.442E-03	 7.329E-23	-2.657E-23	 1.147E-04	-3.460E-03	 5.439E-23	-3.477E-03	 0.000E+00
   10.1500	-3.141E-03	-4.790E-22	 0.000E+00	-3.473E-03	-2.276E-22	 8.088E-22	 1.058E-04	-3.490E-03	-1.149E-22	-3.505E-03	 0.000E+00
   10.2000	-3.143E-03	-5.222E-22	 0.000E+00	-3.515E-03	-9.302E-22	 2.501E-21	 8.354E-05	-3.528E-03	-4.988E-22	-3.539E-03	 0.000E+00
   10.2500	-3.148E-03	-3.604E-22	 0.000E+00	-3.556E-03	-1.166E-21	 3.385E-21	 7.363E-05	-3.567E-03	-5.994E-22	-3.576E-03	 0.000E+00
   10.3000	-3.158E-03	-1.417E-22	 0.000E+00	-3.594E-03	-5.756E-22	 2.118E-21	 8.280E-05	-3.607E-03	-2.460E-22	-3.617E-03	 0.000E+00
   10.3500	-3.168E-03	 2.138E-23	 0.000E+00	-3.633E-03	 2.677E-22	-6.414E-22	 8.823E-05	-3.646E-03	 1.445E-22	-3.657E-03	 0.000E+00
   10.4000	-3.180E-03	 3.303E-22	 0.000E+00	-3.672E-03	 5.641E-22	-1.845E-21	 8.935E-05	-3.685E-03	 2.688E-22	-3.695E-03	 0.000E+00
   10.4500	-3.197E-03	 8.272E-22	 0.000E+00	-3.705E-03	 3.869E-22	-1.340E-21	 1.041E-04	-3.721E-03	 1.834E-22	-3.734E-03	 0.000E+00
   10.5000	-3.218E-03	 1.119E-21	 0.000E+00	-3.736E-03	 4.675E-22	-1.720E-21	 1.307E-04	-3.756E-03	 2.080E-22	-3.774E-03	 0.000E+00
   10.5500	-3.243E-03	 9.513E-22	 0.000E+00	-3.771E-03	 8.807E-22	-2.717E-21	 1.454E-04	-3.793E-03	 4.426E-22	-3.813E-03	 0.000E+00
   10.6000	-3.272E-03	 5.584E-22	 0.000E+00	-3.812E-03	 9.704E-22	-2.712E-21	 1.441E-04	-3.833E-03	 5.052E-22	-3.852E-03	 0.000E+00
   10.6500	-3.307E-03	 3.349E-22	 0.000E+00	-3.852E-03	 2.932E-22	-8.874E-22	 1.401E-04	-3.873E-03	 1.502E-22	-3.891E-03	 0.000E+00
   10.7000	-3.350E-03	 1.786E-22	 0.000E+00	-3.892E-03	-5.421E-22	 1.305E-21	 1.399E-04	-3.913E-03	-3.101E-22	-3.932E-03	 0.000E+00
   10.7500	-3.397E-03	-1.477E-22	 0.000E+00	-3.935E-03	-8.976E-22	 2.529E-21	 1.261E-04	-3.955E-03	-4.697E-22	-3.972E-03	 0.000E+00
   10.8000	-3.447E-03	-4.853E-22	 0.000E+00	-3.983E-03	-7.258E-22	 2.736E-21	 1.035E-04	-3.998E-03	-3.024E-22	-4.011E-03	 0.000E+00
   10.8500	-3.501E-03	-4.365E-22	 0.000E+00	-4.026E-03	-5.769E-22	 2.484E-21	 8.432E-05	-4.038E-03	-2.169E-22	-4.047E-03	 0.000E+00
   10.9000	-3.560E-03	-1.094E-22	 0.000E+00	-4.059E-03	-5.593E-22	 1.211E-21	 8.788E-05	-4.072E-03	-3.371E-22	-4.082E-03	 0.000E+00
   10.9500	-3.622E-03	 2.151E-22	 0.000E+00	-4.087E-03	-3.364E-22	 2.004E-22	 7.996E-05	-4.099E-03	-2.644E-22	-4.108E-03	 0.000E+00
   11.0000	-3.685E-03	 4.390E-22	 0.000E+00	-4.110E-03	 3.199E-22	-7.193E-22	 6.876E-05	-4.120E-03	 1.873E-22	-4.128E-03	 0.000E+00
   11.0500	-3.753E-03	 7.365E-22	 0.000E+00	-4.126E-03	 8.737E-22	-1.830E-21	 6.556E-05	-4.135E-03	 5.415E-22	-4.142E-03	 0.000E+00