
Predictions were generated on 03-May-2022 at 09:24:35 using OpenFAST, compiled as a 64-bit application using double precision at commit -128-NOTFOUND
 linked with  NWTC Subroutine Library; ElastoDyn; SubDyn

Description from the FAST input file: FAST Certification Test #19: NREL 5.0 MW Baseline Wind Turbine with OC3 Monopile RF Configuration, for use in offshore analysis

Time      	TwHt1TPxi 	TwHt1TPyi 	TTDspTwst 	PtfmSurge 	PtfmSway  	PtfmRoll  	PtfmPitch 	TwHt1ALxt 	TwHt1ALyt 	M2N1TDXss 	M2N1TDYss 	M1N1TDXss 	M1N1TDYss 
(s)       	(m)       	(m)       	(deg)     	(m)       	(m)       	(deg)     	(deg)     	(m/s^2)   	(m/s^2)   	(m)       	(m)       	(m)       	(m)       
    0.0000	 0.000E+00	 0.000E+00	 0.000E+00	 0.000E+00	 0.000E+00	 0.000E+00	 0.000E+00	 0.000E+00	 0.000E+00	 0.000E+00	 0.000E+00	 0.000E+00	 0.000E+00
    0.0500	-4.889E-09	-4.775E-25	 0.000E+00	-3.847E-08	 7.058E-25	-3.116E-24	 2.785E-07	 4.673E-06	 2.980E-22	-9.505E-08	 1.020E-25	-1.892E-07	-1.174E-24
    0.1000	 8.321E-09	-8.843E-25	 0.000E+00	-3.239E-07	 1.527E-24	 9.130E-25	 1.124E-06	 2.728E-05	 1.434E-21	-5.307E-07	 5.785E-25	-8.417E-07	-4.031E-24
    0.1500	 9.037E-08	 4.952E-25	 0.000E+00	-1.109E-06	 1.408E-25	 1.180E-23	 2.011E-06	 1.687E-05	-9.411E-22	-1.462E-06	-1.113E-25	-1.964E-06	-6.933E-24
    0.2000	 2.162E-07	 2.786E-24	 0.000E+00	-2.453E-06	-1.816E-24	 1.072E-23	 2.746E-06	-1.933E-05	-7.057E-22	-2.916E-06	-2.247E-24	-3.535E-06	-1.020E-23
    0.2500	 2.941E-07	 2.724E-24	 0.000E+00	-4.223E-06	 8.349E-25	-1.380E-23	 3.508E-06	-4.128E-05	 9.948E-22	-4.801E-06	-2.669E-24	-5.549E-06	-1.335E-23
    0.3000	 2.616E-07	 2.778E-25	 0.000E+00	-6.345E-06	 8.298E-24	-2.289E-23	 4.348E-06	-3.937E-05	 8.696E-22	-7.065E-06	 1.917E-24	-8.006E-06	-1.602E-23
    0.3500	 1.313E-07	-1.620E-24	 0.000E+00	-8.947E-06	 9.358E-24	-8.624E-24	 5.126E-06	-2.051E-05	 1.389E-21	-9.799E-06	 3.311E-24	-1.092E-05	-1.934E-23
    0.4000	-5.342E-08	-3.795E-25	 0.000E+00	-1.221E-05	-8.408E-25	 1.977E-23	 5.701E-06	-2.180E-05	-1.047E-21	-1.315E-05	-2.816E-24	-1.438E-05	-2.244E-23
    0.4500	-2.869E-07	 3.649E-24	 0.000E+00	-1.617E-05	-1.432E-23	 3.393E-23	 6.185E-06	-3.905E-05	-9.117E-22	-1.717E-05	-1.266E-23	-1.845E-05	-2.591E-23
    0.5000	-6.130E-07	 6.553E-24	 0.000E+00	-2.063E-05	-1.475E-23	 2.775E-23	 6.643E-06	-6.968E-05	-1.148E-21	-2.170E-05	-1.404E-23	-2.300E-05	-2.925E-23
    0.5500	-1.103E-06	 4.910E-24	 0.000E+00	-2.535E-05	 6.004E-25	-1.974E-24	 7.241E-06	-8.629E-05	-1.508E-21	-2.649E-05	-5.018E-24	-2.787E-05	-3.201E-23
    0.6000	-1.802E-06	 2.049E-24	 0.000E+00	-3.012E-05	 1.387E-23	-2.280E-23	 7.939E-06	-8.835E-05	 5.789E-22	-3.137E-05	 3.308E-24	-3.285E-05	-3.350E-23
    0.6500	-2.723E-06	 2.843E-24	 0.000E+00	-3.490E-05	 1.101E-23	-1.933E-23	 8.767E-06	-8.690E-05	 7.617E-22	-3.628E-05	 1.342E-24	-3.793E-05	-3.373E-23
    0.7000	-3.856E-06	 8.484E-24	 0.000E+00	-3.980E-05	-3.682E-24	 6.514E-24	 9.971E-06	-6.916E-05	 1.310E-21	-4.137E-05	-8.089E-24	-4.325E-05	-3.467E-23
    0.7500	-5.187E-06	 1.482E-23	 0.000E+00	-4.491E-05	-1.378E-23	 2.363E-23	 1.126E-05	-9.127E-05	-7.313E-22	-4.669E-05	-1.472E-23	-4.883E-05	-3.586E-23
    0.8000	-6.758E-06	 1.514E-23	 0.000E+00	-5.032E-05	-5.134E-24	 4.927E-24	 1.287E-05	-1.153E-04	-7.154E-22	-5.235E-05	-1.008E-23	-5.481E-05	-3.914E-23
    0.8500	-8.633E-06	 1.024E-23	 0.000E+00	-5.600E-05	 1.259E-23	-3.311E-23	 1.454E-05	-1.669E-04	 4.190E-22	-5.831E-05	 5.453E-26	-6.114E-05	-4.226E-23
    0.9000	-1.089E-05	 5.757E-24	 0.000E+00	-6.218E-05	 2.228E-23	-3.890E-23	 1.736E-05	-1.636E-04	-5.239E-21	-6.499E-05	 5.983E-24	-6.851E-05	-4.874E-23
    0.9500	-1.349E-05	 7.435E-24	 0.000E+00	-6.958E-05	 1.148E-23	-7.421E-26	 2.140E-05	-1.009E-04	-2.193E-21	-7.307E-05	-9.586E-25	-7.751E-05	-5.891E-23
    1.0000	-1.634E-05	 1.522E-23	 0.000E+00	-7.898E-05	-1.448E-23	 4.584E-23	 2.532E-05	-1.001E-04	-5.047E-21	-8.309E-05	-1.910E-23	-8.828E-05	-6.952E-23
    1.0500	-1.953E-05	 1.909E-23	 0.000E+00	-9.043E-05	-2.158E-23	 3.613E-23	 2.772E-05	-2.554E-04	 2.615E-21	-9.490E-05	-2.684E-23	-1.005E-04	-7.854E-23
    1.1000	-2.340E-05	 1.327E-23	 0.000E+00	-1.033E-04	 4.878E-24	-1.847E-23	 2.958E-05	-3.833E-04	-2.003E-21	-1.081E-04	-1.246E-23	-1.140E-04	-8.871E-23
    1.1500	-2.815E-05	 5.372E-24	 0.000E+00	-1.171E-04	 3.165E-23	-5.417E-23	 3.085E-05	-4.102E-04	-1.544E-20	-1.221E-04	 4.326E-24	-1.282E-04	-9.484E-23
    1.2000	-3.379E-05	 2.022E-24	 0.000E+00	-1.319E-04	 2.634E-23	-7.612E-24	 3.249E-05	-2.577E-04	 8.891E-22	-1.371E-04	 2.708E-24	-1.435E-04	-1.021E-22
    1.2500	-4.009E-05	 6.192E-24	 0.000E+00	-1.483E-04	-1.365E-23	 3.895E-23	 3.427E-05	-1.636E-04	 2.736E-20	-1.537E-04	-2.568E-23	-1.605E-04	-1.097E-22
    1.3000	-4.691E-05	 1.834E-23	 0.000E+00	-1.665E-04	-4.818E-23	 8.462E-23	 3.605E-05	-2.388E-04	 9.715E-21	-1.723E-04	-5.049E-23	-1.793E-04	-1.206E-22
    1.3500	-5.435E-05	 3.002E-23	 0.000E+00	-1.866E-04	-3.907E-23	 9.580E-23	 3.944E-05	-3.104E-04	 4.356E-21	-1.929E-04	-4.526E-23	-2.005E-04	-1.367E-22
    1.4000	-6.263E-05	 2.918E-23	 0.000E+00	-2.079E-04	 1.438E-23	-1.320E-23	 4.308E-05	-4.887E-04	-1.519E-20	-2.147E-04	-1.474E-23	-2.229E-04	-1.489E-22
    1.4500	-7.206E-05	 2.010E-23	 0.000E+00	-2.297E-04	 6.301E-23	-1.454E-22	 4.683E-05	-5.953E-04	-6.265E-21	-2.371E-04	 1.136E-23	-2.460E-04	-1.544E-22
    1.5000	-8.287E-05	 1.718E-23	 0.000E+00	-2.517E-04	 6.052E-23	-1.469E-22	 5.089E-05	-5.432E-04	 5.604E-21	-2.597E-04	 9.022E-24	-2.694E-04	-1.562E-22
    1.5500	-9.506E-05	 2.547E-23	 0.000E+00	-2.743E-04	 1.067E-23	-2.559E-23	 5.427E-05	-4.420E-04	-2.629E-21	-2.828E-04	-1.974E-23	-2.931E-04	-1.559E-22
    1.6000	-1.085E-04	 3.557E-23	 0.000E+00	-2.974E-04	-3.820E-23	 2.916E-23	 5.443E-05	-5.850E-04	 7.696E-22	-3.060E-04	-5.207E-23	-3.162E-04	-1.500E-22
    1.6500	-1.235E-04	 3.066E-23	 0.000E+00	-3.209E-04	-3.187E-23	 5.463E-23	 5.519E-05	-6.440E-04	-2.609E-20	-3.296E-04	-4.609E-23	-3.400E-04	-1.554E-22
    1.7000	-1.400E-04	 1.096E-23	 0.000E+00	-3.449E-04	 9.090E-24	 4.049E-23	 5.815E-05	-5.515E-04	-9.452E-21	-3.541E-04	-1.759E-23	-3.652E-04	-1.671E-22
    1.7500	-1.577E-04	-3.278E-24	 0.000E+00	-3.702E-04	 2.112E-23	 2.476E-23	 6.240E-05	-4.416E-04	-1.666E-20	-3.801E-04	-1.130E-23	-3.921E-04	-1.776E-22
    1.8000	-1.767E-04	 4.120E-24	 0.000E+00	-3.977E-04	-2.139E-23	 4.646E-23	 6.721E-05	-5.049E-04	 8.380E-21	-4.083E-04	-4.453E-23	-4.213E-04	-1.907E-22
    1.8500	-1.971E-04	 2.260E-23	 0.000E+00	-4.272E-04	-5.382E-23	 5.400E-23	 7.118E-05	-7.693E-04	 8.277E-21	-4.385E-04	-7.023E-23	-4.523E-04	-1.986E-22
    1.9000	-2.193E-04	 2.945E-23	 0.000E+00	-4.582E-04	-1.225E-23	 5.177E-23	 7.449E-05	-9.540E-04	-3.787E-20	-4.700E-04	-4.031E-23	-4.844E-04	-2.102E-22
    1.9500	-2.436E-04	 1.317E-23	 0.000E+00	-4.901E-04	 5.688E-23	-4.589E-23	 7.773E-05	-8.461E-04	-2.138E-20	-5.024E-04	 3.219E-24	-5.174E-04	-2.223E-22
    2.0000	-2.701E-04	-7.098E-24	 0.000E+00	-5.230E-04	 6.468E-23	-1.812E-22	 7.862E-05	-7.177E-04	 2.358E-20	-5.355E-04	-1.395E-24	-5.505E-04	-2.218E-22
    2.0500	-2.986E-04	 4.847E-25	 0.000E+00	-5.567E-04	-5.785E-24	-5.848E-23	 7.401E-05	-9.654E-04	-2.504E-21	-5.684E-04	-4.411E-23	-5.826E-04	-2.106E-22
    2.1000	-3.291E-04	 1.216E-23	 0.000E+00	-5.907E-04	-5.758E-23	 1.634E-22	 7.060E-05	-8.603E-04	-4.441E-20	-6.018E-04	-6.674E-23	-6.151E-04	-2.122E-22
    2.1500	-3.616E-04	 5.699E-24	 0.000E+00	-6.246E-04	-4.762E-23	 1.812E-22	 6.833E-05	-6.247E-04	-1.978E-21	-6.352E-04	-5.840E-23	-6.479E-04	-2.167E-22
    2.2000	-3.957E-04	-1.383E-23	 0.000E+00	-6.578E-04	-9.255E-24	-7.192E-24	 6.339E-05	-6.661E-04	 9.091E-21	-6.675E-04	-4.179E-23	-6.788E-04	-2.049E-22
    2.2500	-4.316E-04	-2.741E-23	 0.000E+00	-6.885E-04	 1.523E-23	-8.008E-23	 5.614E-05	-8.828E-04	 1.355E-20	-6.970E-04	-2.550E-23	-7.065E-04	-1.857E-22
    2.3000	-4.698E-04	-3.747E-23	 0.000E+00	-7.154E-04	 2.275E-23	-1.088E-22	 5.449E-05	-6.604E-04	 2.576E-20	-7.237E-04	-2.030E-23	-7.332E-04	-1.757E-22
    2.3500	-5.096E-04	-2.923E-23	 0.000E+00	-7.395E-04	-1.776E-23	 5.149E-24	 5.452E-05	-4.605E-04	 2.607E-20	-7.480E-04	-4.052E-23	-7.580E-04	-1.638E-22
    2.4000	-5.507E-04	-1.618E-23	 0.000E+00	-7.630E-04	-5.192E-23	 1.771E-22	 5.408E-05	-4.624E-04	-1.392E-20	-7.715E-04	-5.170E-23	-7.816E-04	-1.546E-22
    2.4500	-5.929E-04	-2.498E-23	 0.000E+00	-7.872E-04	-2.809E-23	 8.841E-23	 5.637E-05	-4.435E-04	 6.003E-21	-7.961E-04	-4.220E-23	-8.069E-04	-1.656E-22
    2.5000	-6.363E-04	-4.669E-23	 0.000E+00	-8.128E-04	 4.146E-23	-1.237E-22	 5.860E-05	-6.438E-04	 3.296E-21	-8.222E-04	-7.286E-24	-8.339E-04	-1.770E-22
    2.5500	-6.811E-04	-6.269E-23	 0.000E+00	-8.405E-04	 9.924E-23	-1.969E-22	 5.943E-05	-7.686E-04	 1.839E-20	-8.500E-04	 2.947E-23	-8.620E-04	-1.889E-22
    2.6000	-7.276E-04	-6.494E-23	 0.000E+00	-8.702E-04	 7.943E-23	-1.151E-22	 5.749E-05	-6.644E-04	-1.880E-20	-8.795E-04	 1.994E-23	-8.910E-04	-1.933E-22
    2.6500	-7.757E-04	-6.385E-23	 0.000E+00	-9.017E-04	-1.498E-23	-1.452E-23	 4.963E-05	-5.845E-04	-3.246E-21	-9.096E-04	-4.463E-23	-9.194E-04	-1.920E-22
    2.7000	-8.253E-04	-7.891E-23	 0.000E+00	-9.342E-04	-8.436E-23	 9.411E-23	 3.841E-05	-6.042E-04	 1.011E-20	-9.404E-04	-8.861E-23	-9.484E-04	-1.867E-22
    2.7500	-8.761E-04	-1.057E-22	 0.000E+00	-9.687E-04	-8.970E-23	 3.037E-22	 3.052E-05	-1.183E-04	-1.317E-20	-9.737E-04	-7.936E-23	-9.802E-04	-2.060E-22
    2.8000	-9.269E-04	-1.235E-22	 0.000E+00	-1.006E-03	-7.746E-23	 3.566E-22	 2.143E-05	 4.682E-05	 1.974E-21	-1.010E-03	-6.841E-23	-1.014E-03	-2.221E-22
    2.8500	-9.777E-04	-1.189E-22	 0.000E+00	-1.046E-03	-7.246E-23	 2.377E-22	 1.669E-05	 8.355E-05	-1.341E-20	-1.049E-03	-7.800E-23	-1.052E-03	-2.463E-22
    2.9000	-1.028E-03	-1.016E-22	 0.000E+00	-1.089E-03	-4.028E-23	 7.995E-23	 1.889E-05	 1.225E-04	-1.233E-20	-1.092E-03	-7.186E-23	-1.096E-03	-2.835E-22
    2.9500	-1.079E-03	-7.240E-23	 0.000E+00	-1.134E-03	-8.625E-24	-5.922E-23	 2.057E-05	-2.013E-04	 8.149E-21	-1.137E-03	-6.086E-23	-1.142E-03	-2.978E-22
    3.0000	-1.130E-03	-4.779E-23	 0.000E+00	-1.180E-03	 4.292E-23	-8.894E-23	 2.112E-05	-5.466E-04	-3.126E-20	-1.183E-03	-2.494E-23	-1.188E-03	-3.064E-22
    3.0500	-1.182E-03	-4.919E-23	 0.000E+00	-1.227E-03	 1.028E-22	-1.928E-22	 2.683E-05	-1.029E-04	-2.393E-21	-1.231E-03	 9.618E-24	-1.236E-03	-3.268E-22
    3.1000	-1.235E-03	-5.574E-23	 0.000E+00	-1.275E-03	 9.599E-23	-2.857E-22	 2.510E-05	-5.087E-05	 2.218E-20	-1.279E-03	-1.712E-24	-1.284E-03	-3.190E-22
    3.1500	-1.288E-03	-4.876E-23	 0.000E+00	-1.323E-03	 8.730E-24	-2.363E-22	 7.092E-06	-7.108E-04	 6.638E-21	-1.324E-03	-5.710E-23	-1.324E-03	-2.713E-22
    3.2000	-1.342E-03	-6.375E-23	 0.000E+00	-1.366E-03	-2.669E-24	-2.795E-23	-1.413E-05	-6.406E-04	-4.711E-20	-1.363E-03	-4.223E-23	-1.358E-03	-2.282E-22
    3.2500	-1.398E-03	-1.204E-22	 0.000E+00	-1.401E-03	 1.325E-23	-9.098E-23	-2.549E-05	 4.339E-04	 8.161E-20	-1.396E-03	-3.259E-23	-1.390E-03	-2.141E-22
    3.3000	-1.454E-03	-1.541E-22	 0.000E+00	-1.431E-03	-7.218E-23	 1.955E-22	-3.441E-05	 9.503E-04	 4.224E-20	-1.426E-03	-7.164E-23	-1.419E-03	-1.893E-22
    3.3500	-1.507E-03	-1.328E-22	 0.000E+00	-1.462E-03	-2.214E-22	 6.132E-22	-4.323E-05	 1.031E-03	-3.705E-20	-1.455E-03	-1.491E-22	-1.445E-03	-1.626E-22
    3.4000	-1.558E-03	-7.234E-23	 0.000E+00	-1.488E-03	-2.752E-22	 5.841E-22	-5.882E-05	-2.570E-04	-5.911E-20	-1.478E-03	-1.869E-22	-1.465E-03	-1.265E-22
    3.4500	-1.610E-03	-7.226E-23	 0.000E+00	-1.505E-03	-7.422E-23	-6.431E-23	-5.900E-05	-4.302E-04	 2.040E-19	-1.495E-03	-8.218E-23	-1.482E-03	-1.196E-22
    3.5000	-1.662E-03	-1.312E-22	 0.000E+00	-1.514E-03	 2.011E-22	-5.046E-22	-4.433E-05	 7.944E-04	 2.465E-20	-1.507E-03	 9.624E-23	-1.498E-03	-1.127E-22
    3.5500	-1.712E-03	-1.706E-22	 0.000E+00	-1.523E-03	 2.645E-22	-4.709E-22	-3.784E-05	 1.106E-03	 3.825E-20	-1.517E-03	 1.506E-22	-1.511E-03	-9.601E-23
    3.6000	-1.760E-03	-1.151E-22	 0.000E+00	-1.536E-03	 1.667E-23	 3.724E-23	-4.395E-05	 4.033E-04	-9.367E-21	-1.530E-03	 3.745E-24	-1.522E-03	-7.241E-23
    3.6500	-1.806E-03	-2.162E-23	 0.000E+00	-1.551E-03	-1.951E-22	 3.764E-22	-6.023E-05	-3.519E-04	-1.080E-19	-1.542E-03	-1.284E-22	-1.530E-03	-4.748E-23
    3.7000	-1.853E-03	-5.003E-23	 0.000E+00	-1.561E-03	-4.366E-23	-5.983E-23	-7.740E-05	-1.156E-04	 1.177E-20	-1.549E-03	-4.332E-23	-1.534E-03	-2.971E-23
    3.7500	-1.899E-03	-2.261E-22	 0.000E+00	-1.568E-03	 3.096E-22	-7.101E-22	-8.910E-05	 1.043E-03	 3.770E-20	-1.554E-03	 1.769E-22	-1.538E-03	-3.249E-23
    3.8000	-1.943E-03	-3.513E-22	 0.000E+00	-1.577E-03	 3.254E-22	-2.953E-22	-9.429E-05	 2.553E-03	 5.904E-20	-1.563E-03	 2.168E-22	-1.546E-03	-6.383E-23
    3.8500	-1.981E-03	-2.647E-22	 0.000E+00	-1.597E-03	-1.619E-22	 5.373E-22	-1.013E-04	 2.286E-03	 5.369E-20	-1.581E-03	-9.808E-23	-1.564E-03	-9.512E-23
    3.9000	-2.014E-03	-4.613E-23	 0.000E+00	-1.626E-03	-5.921E-22	 1.160E-21	-9.929E-05	 1.517E-03	-2.581E-20	-1.611E-03	-3.913E-22	-1.593E-03	-1.610E-22
    3.9500	-2.044E-03	 4.392E-23	 0.000E+00	-1.661E-03	-3.730E-22	 6.553E-22	-9.424E-05	 5.202E-04	-1.330E-19	-1.646E-03	-2.717E-22	-1.628E-03	-2.174E-22
    4.0000	-2.072E-03	-1.046E-22	 0.000E+00	-1.695E-03	 3.213E-22	-5.067E-22	-8.182E-05	 4.278E-04	-1.089E-19	-1.682E-03	 1.618E-22	-1.667E-03	-2.744E-22
    4.0500	-2.099E-03	-3.140E-22	 0.000E+00	-1.730E-03	 7.487E-22	-1.494E-21	-6.805E-05	 9.523E-04	 9.103E-20	-1.719E-03	 4.088E-22	-1.709E-03	-3.002E-22
    4.1000	-2.124E-03	-2.373E-22	 0.000E+00	-1.770E-03	 2.728E-22	-6.337E-22	-6.560E-05	 1.125E-03	 1.339E-19	-1.761E-03	 1.127E-22	-1.750E-03	-2.849E-22
    4.1500	-2.146E-03	 6.564E-23	 0.000E+00	-1.818E-03	-5.548E-22	 1.130E-21	-7.368E-05	 9.012E-04	-6.189E-20	-1.807E-03	-3.813E-22	-1.794E-03	-2.597E-22
    4.2000	-2.166E-03	 2.011E-22	 0.000E+00	-1.868E-03	-7.189E-22	 1.434E-21	-8.229E-05	 6.528E-04	-1.340E-19	-1.855E-03	-4.866E-22	-1.840E-03	-2.774E-22
    4.2500	-2.184E-03	-1.880E-23	 0.000E+00	-1.918E-03	-1.717E-23	 9.316E-23	-8.156E-05	 1.100E-03	-4.349E-20	-1.905E-03	-6.189E-23	-1.890E-03	-3.369E-22
    4.3000	-2.200E-03	-3.050E-22	 0.000E+00	-1.968E-03	 6.174E-22	-1.217E-21	-7.868E-05	 1.150E-03	 1.414E-19	-1.955E-03	 3.197E-22	-1.940E-03	-3.591E-22
    4.3500	-2.212E-03	-2.665E-22	 0.000E+00	-2.017E-03	 3.997E-22	-7.997E-22	-7.632E-05	 6.072E-04	 1.489E-19	-2.005E-03	 1.888E-22	-1.990E-03	-3.355E-22
    4.4000	-2.223E-03	 8.908E-23	 0.000E+00	-2.064E-03	-3.705E-22	 8.474E-22	-6.807E-05	 5.308E-04	-7.397E-20	-2.053E-03	-2.681E-22	-2.039E-03	-2.983E-22
    4.4500	-2.233E-03	 3.370E-22	 0.000E+00	-2.105E-03	-6.562E-22	 1.378E-21	-5.944E-05	 2.021E-04	-1.802E-19	-2.095E-03	-4.389E-22	-2.082E-03	-2.541E-22
    4.5000	-2.242E-03	 1.894E-22	 0.000E+00	-2.138E-03	-2.578E-23	-1.481E-23	-4.100E-05	 5.034E-04	-6.788E-20	-2.132E-03	-6.707E-23	-2.123E-03	-2.767E-22
    4.5500	-2.251E-03	-9.614E-23	 0.000E+00	-2.169E-03	 6.951E-22	-1.588E-21	-2.451E-05	 4.501E-04	 1.373E-19	-2.166E-03	 3.629E-22	-2.161E-03	-2.825E-22
    4.6000	-2.258E-03	-9.365E-23	 0.000E+00	-2.201E-03	 6.173E-22	-1.372E-21	-1.334E-05	 1.052E-04	 1.512E-19	-2.199E-03	 3.254E-22	-2.197E-03	-2.507E-22
    4.6500	-2.265E-03	 2.124E-22	 0.000E+00	-2.233E-03	-1.093E-22	 2.139E-22	-1.487E-06	-2.300E-05	-4.684E-20	-2.233E-03	-1.053E-22	-2.233E-03	-2.282E-22
    4.7000	-2.272E-03	 4.287E-22	 0.000E+00	-2.265E-03	-5.763E-22	 1.111E-21	 8.859E-06	-2.114E-04	-1.787E-19	-2.266E-03	-3.922E-22	-2.268E-03	-2.170E-22
    4.7500	-2.280E-03	 2.732E-22	 0.000E+00	-2.298E-03	-2.365E-22	 4.794E-22	 1.925E-05	-1.634E-04	-8.435E-20	-2.301E-03	-1.837E-22	-2.305E-03	-2.369E-22
    4.8000	-2.288E-03	-4.347E-23	 0.000E+00	-2.333E-03	 3.602E-22	-7.018E-22	 2.417E-05	-2.850E-04	 1.093E-19	-2.337E-03	 1.785E-22	-2.342E-03	-2.618E-22
    4.8500	-2.296E-03	-1.153E-22	 0.000E+00	-2.370E-03	 3.958E-22	-7.046E-22	 2.471E-05	-3.566E-04	 1.390E-19	-2.374E-03	 2.075E-22	-2.378E-03	-2.510E-22
    4.9000	-2.305E-03	 1.223E-22	 0.000E+00	-2.407E-03	-1.818E-22	 4.236E-22	 2.511E-05	-3.708E-04	-1.169E-20	-2.411E-03	-1.453E-22	-2.415E-03	-2.329E-22
    4.9500	-2.315E-03	 3.325E-22	 0.000E+00	-2.443E-03	-6.344E-22	 1.162E-21	 3.004E-05	 8.802E-05	-1.465E-20	-2.447E-03	-4.336E-22	-2.452E-03	-2.210E-22
    5.0000	-2.326E-03	 2.722E-22	 0.000E+00	-2.477E-03	-3.935E-22	 6.884E-22	 2.477E-05	-4.245E-04	-3.496E-20	-2.480E-03	-2.802E-22	-2.484E-03	-1.897E-22
    5.0500	-2.338E-03	 6.419E-23	 0.000E+00	-2.505E-03	 2.374E-22	-4.247E-22	 1.661E-05	-1.054E-03	 3.691E-20	-2.507E-03	 1.192E-22	-2.509E-03	-1.808E-22
    5.1000	-2.352E-03	 1.170E-23	 0.000E+00	-2.526E-03	 5.447E-22	-9.799E-22	 1.724E-05	-5.147E-04	 5.839E-20	-2.528E-03	 3.156E-22	-2.529E-03	-1.601E-22
    5.1500	-2.367E-03	 2.096E-22	 0.000E+00	-2.539E-03	 2.311E-22	-5.492E-22	 2.117E-05	-3.509E-05	 7.503E-20	-2.542E-03	 1.163E-22	-2.545E-03	-1.099E-22
    5.2000	-2.382E-03	 4.104E-22	 0.000E+00	-2.550E-03	-2.037E-22	 2.112E-22	 2.872E-05	 1.343E-04	-1.263E-19	-2.554E-03	-1.536E-22	-2.559E-03	-7.997E-23
    5.2500	-2.397E-03	 3.943E-22	 0.000E+00	-2.559E-03	-2.198E-22	 1.764E-22	 3.251E-05	-4.742E-04	-4.678E-20	-2.564E-03	-1.658E-22	-2.570E-03	-6.250E-23
    5.3000	-2.414E-03	 2.164E-22	 0.000E+00	-2.566E-03	 2.078E-22	-4.159E-22	 3.694E-05	-8.818E-04	 1.421E-20	-2.572E-03	 1.157E-22	-2.578E-03	-6.868E-23
    5.3500	-2.432E-03	 7.563E-23	 0.000E+00	-2.570E-03	 5.257E-22	-1.126E-21	 4.491E-05	-7.800E-04	 1.084E-19	-2.577E-03	 3.036E-22	-2.585E-03	-7.454E-23
    5.4000	-2.453E-03	 8.347E-23	 0.000E+00	-2.572E-03	 3.484E-22	-8.147E-22	 5.427E-05	-3.082E-04	 2.732E-20	-2.581E-03	 1.937E-22	-2.593E-03	-6.168E-23
    5.4500	-2.474E-03	 1.544E-22	 0.000E+00	-2.580E-03	-1.917E-22	 2.852E-22	 5.487E-05	-1.552E-04	-2.645E-21	-2.589E-03	-1.317E-22	-2.600E-03	-3.981E-23
    5.5000	-2.495E-03	 1.474E-22	 0.000E+00	-2.592E-03	-5.508E-22	 1.273E-21	 4.402E-05	-5.570E-04	-5.591E-20	-2.599E-03	-3.286E-22	-2.608E-03	-2.984E-23
    5.5500	-2.518E-03	 2.098E-23	 0.000E+00	-2.606E-03	-3.923E-22	 1.021E-21	 3.201E-05	-6.018E-04	 7.848E-22	-2.611E-03	-2.291E-22	-2.617E-03	-4.572E-23
    5.6000	-2.543E-03	-9.027E-23	 0.000E+00	-2.618E-03	-9.305E-24	 6.222E-23	 1.251E-05	-8.903E-04	 1.034E-20	-2.620E-03	-7.498E-24	-2.622E-03	-3.157E-23
    5.6500	-2.569E-03	-1.157E-22	 0.000E+00	-2.625E-03	 2.227E-22	-3.193E-22	-6.100E-06	-6.266E-04	 1.673E-20	-2.624E-03	 1.441E-22	-2.622E-03	-1.345E-23
    5.7000	-2.596E-03	-5.445E-23	 0.000E+00	-2.630E-03	 3.997E-23	 4.315E-23	-7.520E-06	 1.050E-03	 6.143E-20	-2.629E-03	 2.824E-23	-2.627E-03	-3.592E-23
    5.7500	-2.620E-03	 7.501E-23	 0.000E+00	-2.637E-03	-3.681E-22	 6.321E-22	-9.648E-06	 1.176E-03	 5.447E-20	-2.635E-03	-2.389E-22	-2.634E-03	-3.198E-23
    5.8000	-2.643E-03	 2.074E-22	 0.000E+00	-2.647E-03	-5.459E-22	 7.824E-22	-1.686E-05	-2.304E-04	-4.311E-20	-2.644E-03	-3.628E-22	-2.640E-03	-2.488E-23
    5.8500	-2.665E-03	 1.902E-22	 0.000E+00	-2.654E-03	-4.203E-23	 5.358E-23	-1.185E-05	-6.622E-04	-3.136E-20	-2.652E-03	-3.924E-23	-2.649E-03	-6.669E-23
    5.9000	-2.689E-03	 7.309E-24	 0.000E+00	-2.658E-03	 6.982E-22	-1.426E-21	 2.574E-06	-2.766E-04	-3.469E-20	-2.658E-03	 4.082E-22	-2.659E-03	-1.019E-22
    5.9500	-2.713E-03	-1.508E-22	 0.000E+00	-2.662E-03	 8.692E-22	-1.880E-21	 1.414E-05	 2.942E-04	 8.167E-20	-2.665E-03	 5.049E-22	-2.669E-03	-9.690E-23
    6.0000	-2.736E-03	-1.158E-22	 0.000E+00	-2.673E-03	 2.415E-22	-6.300E-22	 1.645E-05	 3.596E-04	 1.148E-19	-2.676E-03	 1.236E-22	-2.681E-03	-7.597E-23
    6.0500	-2.759E-03	 3.881E-23	 0.000E+00	-2.690E-03	-5.297E-22	 9.851E-22	 9.845E-06	-1.827E-04	-2.632E-20	-2.692E-03	-3.419E-22	-2.695E-03	-7.047E-23
    6.1000	-2.782E-03	 5.850E-23	 0.000E+00	-2.713E-03	-6.447E-22	 1.469E-21	 5.723E-06	-1.723E-04	-1.279E-19	-2.714E-03	-3.997E-22	-2.717E-03	-1.154E-22
    6.1500	-2.805E-03	-1.751E-22	 0.000E+00	-2.740E-03	-6.696E-23	 4.880E-22	-2.539E-07	-3.080E-05	-9.630E-20	-2.740E-03	-4.045E-23	-2.742E-03	-1.651E-22
    6.2000	-2.828E-03	-4.586E-22	 0.000E+00	-2.772E-03	 4.317E-22	-7.436E-22	-4.592E-06	 5.760E-04	 6.597E-20	-2.771E-03	 2.395E-22	-2.771E-03	-2.063E-22
    6.2500	-2.850E-03	-4.412E-22	 0.000E+00	-2.806E-03	 1.556E-22	-1.996E-22	-1.715E-05	 2.783E-04	 1.551E-19	-2.803E-03	 7.229E-23	-2.799E-03	-1.911E-22
    6.3000	-2.872E-03	-1.477E-22	 0.000E+00	-2.839E-03	-5.423E-22	 1.217E-21	-2.763E-05	-2.457E-05	-2.920E-20	-2.835E-03	-3.485E-22	-2.828E-03	-1.619E-22
    6.3500	-2.893E-03	 7.196E-23	 0.000E+00	-2.868E-03	-7.582E-22	 1.553E-21	-2.980E-05	 6.802E-05	-1.414E-19	-2.863E-03	-4.876E-22	-2.857E-03	-1.578E-22
    6.4000	-2.914E-03	-2.129E-23	 0.000E+00	-2.895E-03	-1.346E-22	 4.108E-22	-1.818E-05	 8.888E-04	-1.963E-20	-2.892E-03	-1.066E-22	-2.889E-03	-2.129E-22
    6.4500	-2.934E-03	-2.412E-22	 0.000E+00	-2.925E-03	 6.002E-22	-1.237E-21	-1.753E-06	 9.132E-04	 4.299E-20	-2.925E-03	 3.210E-22	-2.925E-03	-2.617E-22
    6.5000	-2.951E-03	-2.309E-22	 0.000E+00	-2.959E-03	 6.706E-22	-1.708E-21	 1.057E-05	-8.194E-05	 1.610E-19	-2.961E-03	 3.363E-22	-2.964E-03	-2.720E-22
    6.5500	-2.969E-03	 4.608E-23	 0.000E+00	-2.995E-03	 1.745E-22	-5.314E-22	 1.872E-05	-1.008E-03	-7.625E-20	-2.998E-03	 5.035E-23	-3.001E-03	-2.529E-22
    6.6000	-2.989E-03	 2.176E-22	 0.000E+00	-3.027E-03	-1.849E-22	 1.985E-22	 2.235E-05	-1.275E-03	-1.597E-19	-3.030E-03	-1.631E-22	-3.034E-03	-2.181E-22
    6.6500	-3.011E-03	 3.391E-23	 0.000E+00	-3.053E-03	 8.289E-24	 2.335E-23	 2.209E-05	-6.307E-04	-6.379E-20	-3.057E-03	-2.323E-23	-3.061E-03	-1.892E-22
    6.7000	-3.035E-03	-3.315E-22	 0.000E+00	-3.078E-03	 3.109E-22	-6.702E-22	 1.613E-05	 2.970E-04	 8.468E-20	-3.080E-03	 1.582E-22	-3.084E-03	-1.701E-22
    6.7500	-3.058E-03	-4.664E-22	 0.000E+00	-3.104E-03	 1.342E-22	-2.133E-22	-1.614E-07	 3.133E-04	 1.729E-19	-3.104E-03	 6.500E-23	-3.104E-03	-1.296E-22
    6.8000	-3.081E-03	-2.719E-22	 0.000E+00	-3.130E-03	-4.775E-22	 1.201E-21	-2.012E-05	-2.883E-04	-5.365E-20	-3.127E-03	-2.875E-22	-3.121E-03	-8.787E-23
    6.8500	-3.104E-03	-8.109E-23	 0.000E+00	-3.150E-03	-7.957E-22	 1.979E-21	-2.740E-05	-2.350E-04	-1.318E-19	-3.145E-03	-4.702E-22	-3.138E-03	-8.213E-23
    6.9000	-3.127E-03	-1.677E-22	 0.000E+00	-3.164E-03	-4.616E-22	 1.137E-21	-1.473E-05	 6.128E-04	-6.638E-20	-3.161E-03	-2.854E-22	-3.158E-03	-1.181E-22
    6.9500	-3.149E-03	-3.706E-22	 0.000E+00	-3.177E-03	 1.444E-22	-3.614E-22	 2.953E-06	 9.222E-04	 2.427E-19	-3.178E-03	 6.089E-23	-3.178E-03	-1.310E-22
    7.0000	-3.169E-03	-3.170E-22	 0.000E+00	-3.194E-03	 3.743E-22	-7.414E-22	 1.174E-05	-2.217E-04	 1.367E-19	-3.195E-03	 2.080E-22	-3.198E-03	-1.309E-22
    7.0500	-3.189E-03	 1.248E-23	 0.000E+00	-3.211E-03	 1.608E-22	-1.674E-22	 2.070E-05	-9.811E-04	-9.439E-20	-3.214E-03	 8.789E-23	-3.218E-03	-1.366E-22
    7.1000	-3.212E-03	 2.410E-22	 0.000E+00	-3.226E-03	 3.712E-23	-2.457E-22	 3.270E-05	-6.360E-04	-1.391E-19	-3.231E-03	-1.390E-23	-3.238E-03	-1.386E-22
    7.1500	-3.236E-03	 1.266E-22	 0.000E+00	-3.242E-03	 3.099E-22	-1.060E-21	 3.773E-05	-1.100E-04	-2.530E-20	-3.249E-03	 1.314E-22	-3.258E-03	-1.414E-22
    7.2000	-3.261E-03	-1.209E-22	 0.000E+00	-3.265E-03	 5.726E-22	-1.380E-21	 3.227E-05	 2.494E-04	 1.381E-19	-3.270E-03	 3.058E-22	-3.278E-03	-1.581E-22
    7.2500	-3.286E-03	-1.624E-22	 0.000E+00	-3.294E-03	 3.581E-22	-6.093E-22	 1.454E-05	-3.639E-05	 8.883E-20	-3.296E-03	 2.026E-22	-3.299E-03	-1.510E-22
    7.3000	-3.311E-03	 5.115E-24	 0.000E+00	-3.323E-03	-1.741E-22	 4.913E-22	-1.287E-05	-7.126E-04	-9.631E-20	-3.320E-03	-1.137E-22	-3.317E-03	-1.105E-22
    7.3500	-3.337E-03	 4.258E-23	 0.000E+00	-3.346E-03	-3.693E-22	 7.337E-22	-3.192E-05	-3.348E-04	-1.442E-19	-3.340E-03	-2.406E-22	-3.332E-03	-8.476E-23
    7.4000	-3.363E-03	-1.591E-22	 0.000E+00	-3.361E-03	-1.634E-22	 3.663E-22	-3.995E-05	 6.582E-04	 1.224E-20	-3.354E-03	-1.098E-22	-3.345E-03	-7.759E-23
    7.4500	-3.388E-03	-3.447E-22	 0.000E+00	-3.371E-03	 3.333E-23	 3.361E-22	-4.520E-05	 9.217E-04	 7.193E-20	-3.364E-03	 4.397E-23	-3.354E-03	-4.993E-23
    7.5000	-3.411E-03	-2.272E-22	 0.000E+00	-3.379E-03	-1.493E-22	 6.645E-22	-4.683E-05	 5.869E-04	 1.357E-19	-3.371E-03	-6.723E-23	-3.360E-03	-2.889E-23
    7.5500	-3.432E-03	 1.180E-22	 0.000E+00	-3.381E-03	-4.605E-22	 9.496E-22	-4.597E-05	 2.697E-06	-7.197E-20	-3.373E-03	-2.782E-22	-3.362E-03	 8.733E-24
    7.6000	-3.453E-03	 2.772E-22	 0.000E+00	-3.374E-03	-2.035E-22	 1.960E-22	-3.908E-05	-4.523E-04	-9.644E-20	-3.367E-03	-1.347E-22	-3.359E-03	 3.954E-23
    7.6500	-3.476E-03	 1.350E-22	 0.000E+00	-3.361E-03	 4.872E-22	-1.015E-21	-1.919E-05	 3.877E-04	-2.250E-20	-3.358E-03	 2.943E-22	-3.356E-03	-4.934E-24
    7.7000	-3.497E-03	 1.805E-23	 0.000E+00	-3.352E-03	 7.805E-22	-1.439E-21	-8.549E-07	 1.169E-03	 2.364E-19	-3.353E-03	 4.830E-22	-3.356E-03	-2.736E-23
    7.7500	-3.516E-03	 2.136E-22	 0.000E+00	-3.355E-03	 3.016E-22	-8.422E-22	 8.132E-07	 4.710E-04	 6.900E-20	-3.356E-03	 1.612E-22	-3.359E-03	-2.709E-23
    7.8000	-3.533E-03	 5.213E-22	 0.000E+00	-3.367E-03	-2.598E-22	 3.572E-23	-8.833E-06	-5.141E-04	-7.017E-20	-3.366E-03	-2.023E-22	-3.365E-03	-3.000E-23
    7.8500	-3.552E-03	 5.159E-22	 0.000E+00	-3.380E-03	-1.265E-22	 8.432E-23	-2.180E-05	-5.443E-04	-1.840E-19	-3.376E-03	-1.001E-22	-3.373E-03	-5.619E-23
    7.9000	-3.572E-03	 1.515E-22	 0.000E+00	-3.391E-03	 4.208E-22	-6.221E-22	-3.739E-05	 3.934E-04	-3.318E-20	-3.385E-03	 2.637E-22	-3.378E-03	-6.798E-23
    7.9500	-3.591E-03	-1.503E-22	 0.000E+00	-3.402E-03	 4.855E-22	-8.522E-22	-5.860E-05	 1.361E-03	 1.683E-19	-3.393E-03	 2.994E-22	-3.382E-03	-4.320E-23
    8.0000	-3.608E-03	-1.510E-23	 0.000E+00	-3.414E-03	-2.574E-22	 4.731E-22	-8.474E-05	 1.207E-03	 2.389E-19	-3.401E-03	-1.589E-22	-3.384E-03	 1.169E-23
    8.0500	-3.622E-03	 3.602E-22	 0.000E+00	-3.425E-03	-9.772E-22	 2.198E-21	-1.017E-04	 8.090E-04	-9.167E-20	-3.408E-03	-5.751E-22	-3.388E-03	 2.362E-23
    8.1000	-3.633E-03	 4.827E-22	 0.000E+00	-3.432E-03	-8.024E-22	 2.068E-21	-9.368E-05	 1.290E-03	-2.118E-19	-3.417E-03	-4.616E-22	-3.398E-03	-4.165E-23
    8.1500	-3.641E-03	 2.730E-22	 0.000E+00	-3.437E-03	 6.793E-23	-6.559E-24	-7.203E-05	 1.506E-03	-1.229E-20	-3.426E-03	 3.446E-23	-3.412E-03	-1.044E-22
    8.2000	-3.646E-03	 1.441E-22	 0.000E+00	-3.443E-03	 6.777E-22	-1.657E-21	-5.658E-05	 3.840E-04	 2.033E-19	-3.434E-03	 3.751E-22	-3.423E-03	-9.619E-23
    8.2500	-3.649E-03	 3.796E-22	 0.000E+00	-3.447E-03	 5.470E-22	-1.458E-21	-4.197E-05	-4.941E-04	 6.976E-20	-3.440E-03	 2.932E-22	-3.433E-03	-7.789E-23
    8.3000	-3.654E-03	 7.355E-22	 0.000E+00	-3.448E-03	 1.468E-22	-3.246E-22	-2.540E-05	-2.504E-04	-1.970E-19	-3.445E-03	 7.705E-23	-3.441E-03	-6.220E-23
    8.3500	-3.658E-03	 8.274E-22	 0.000E+00	-3.451E-03	-1.348E-23	 2.023E-24	-1.725E-05	 6.501E-04	-1.555E-19	-3.449E-03	-1.941E-23	-3.447E-03	-5.516E-23
    8.4000	-3.661E-03	 5.763E-22	 0.000E+00	-3.459E-03	 2.069E-22	-7.818E-22	-2.986E-05	 5.769E-04	 3.567E-20	-3.454E-03	 9.186E-23	-3.450E-03	-3.413E-23
    8.4500	-3.664E-03	 3.096E-22	 0.000E+00	-3.468E-03	 3.929E-22	-1.119E-21	-5.618E-05	 1.184E-04	 1.266E-19	-3.459E-03	 2.123E-22	-3.448E-03	-1.151E-23
    8.5000	-3.666E-03	 3.035E-22	 0.000E+00	-3.473E-03	 1.689E-22	-2.814E-22	-9.065E-05	-1.893E-04	 7.654E-20	-3.458E-03	 1.168E-22	-3.438E-03	 5.370E-23
    8.5500	-3.668E-03	 4.230E-22	 0.000E+00	-3.464E-03	-3.118E-22	 7.704E-22	-1.185E-04	 4.340E-04	-1.424E-19	-3.445E-03	-1.581E-22	-3.420E-03	 1.274E-22
    8.6000	-3.668E-03	 3.756E-22	 0.000E+00	-3.445E-03	-5.023E-22	 1.350E-21	-1.245E-04	 2.067E-03	-5.486E-20	-3.425E-03	-2.549E-22	-3.399E-03	 1.523E-22
    8.6500	-3.663E-03	 2.287E-22	 0.000E+00	-3.421E-03	-4.592E-22	 1.311E-21	-1.218E-04	 2.275E-03	-8.858E-20	-3.402E-03	-2.228E-22	-3.378E-03	 1.637E-22
    8.7000	-3.653E-03	 2.060E-22	 0.000E+00	-3.397E-03	-2.745E-22	 6.283E-22	-1.080E-04	 1.365E-03	 9.709E-20	-3.380E-03	-1.368E-22	-3.359E-03	 1.502E-22
    8.7500	-3.639E-03	 3.917E-22	 0.000E+00	-3.372E-03	-6.382E-24	-3.922E-23	-7.920E-05	 3.382E-04	 3.170E-20	-3.360E-03	 9.520E-24	-3.345E-03	 1.054E-22
    8.8000	-3.624E-03	 5.693E-22	 0.000E+00	-3.347E-03	 3.901E-22	-7.097E-22	-3.739E-05	 2.974E-04	-1.539E-19	-3.342E-03	 2.518E-22	-3.336E-03	 4.434E-23
    8.8500	-3.608E-03	 5.656E-22	 0.000E+00	-3.328E-03	 6.543E-22	-1.557E-21	 2.097E-06	 5.296E-04	-4.100E-20	-3.330E-03	 3.793E-22	-3.334E-03	-9.813E-24
    8.9000	-3.591E-03	 4.808E-22	 0.000E+00	-3.322E-03	 5.977E-22	-1.733E-21	 2.167E-05	 3.093E-04	 1.009E-19	-3.327E-03	 3.187E-22	-3.335E-03	-2.833E-23
    8.9500	-3.574E-03	 5.099E-22	 0.000E+00	-3.330E-03	 2.412E-22	-8.942E-22	 1.144E-05	-5.199E-04	 1.464E-19	-3.332E-03	 1.109E-22	-3.338E-03	-2.490E-23
    9.0000	-3.558E-03	 5.817E-22	 0.000E+00	-3.344E-03	-3.192E-23	 6.464E-23	-2.079E-05	-9.435E-04	-1.927E-19	-3.341E-03	-2.080E-23	-3.338E-03	-7.921E-24
    9.0500	-3.543E-03	 4.517E-22	 0.000E+00	-3.357E-03	-8.005E-24	 2.840E-23	-5.734E-05	 2.430E-04	-1.093E-19	-3.348E-03	-4.529E-24	-3.336E-03	-3.653E-24
    9.1000	-3.528E-03	 1.211E-22	 0.000E+00	-3.365E-03	 8.898E-23	-2.455E-22	-9.771E-05	 1.383E-03	 2.910E-20	-3.349E-03	 5.665E-23	-3.328E-03	 4.518E-23
    9.1500	-3.510E-03	-1.066E-22	 0.000E+00	-3.365E-03	-1.418E-22	 3.435E-22	-1.322E-04	 1.813E-03	 3.091E-19	-3.343E-03	-6.640E-23	-3.314E-03	 9.441E-23
    9.2000	-3.488E-03	 2.441E-23	 0.000E+00	-3.355E-03	-7.317E-22	 1.985E-21	-1.461E-04	 1.720E-03	 3.227E-20	-3.330E-03	-3.847E-22	-3.299E-03	 1.325E-22
    9.2500	-3.462E-03	 2.955E-22	 0.000E+00	-3.333E-03	-9.907E-22	 2.410E-21	-1.294E-04	 1.437E-03	-1.029E-19	-3.312E-03	-5.495E-22	-3.284E-03	 1.394E-22
    9.3000	-3.431E-03	 3.543E-22	 0.000E+00	-3.303E-03	-4.280E-22	 8.191E-22	-8.329E-05	 1.093E-03	-1.329E-19	-3.289E-03	-2.479E-22	-3.272E-03	 1.029E-22
    9.3500	-3.398E-03	 1.678E-22	 0.000E+00	-3.270E-03	 6.232E-22	-1.360E-21	-2.141E-05	 6.175E-04	 5.829E-20	-3.267E-03	 3.798E-22	-3.264E-03	 4.370E-23
    9.4000	-3.363E-03	 8.944E-23	 0.000E+00	-3.242E-03	 1.123E-21	-2.360E-21	 3.865E-05	-1.966E-04	 1.630E-19	-3.249E-03	 6.768E-22	-3.259E-03	-8.671E-24
    9.4500	-3.330E-03	 3.264E-22	 0.000E+00	-3.226E-03	 6.990E-22	-1.530E-21	 8.754E-05	-1.029E-03	-7.912E-21	-3.241E-03	 4.105E-22	-3.263E-03	-4.260E-23