
Predictions were generated on 03-May-2022 at 09:15:04 using OpenFAST, compiled as a 64-bit application using double precision at commit -128-NOTFOUND
 linked with  NWTC Subroutine Library; ElastoDyn; SubDyn

Description from the FAST input file: FAST Certification Test #19: NREL 5.0 MW Baseline Wind Turbine with OC3 Monopile RF Configuration, for use in offshore analysis

Time      	TwHt1TPxi 	TwHt1TPyi 	TTDspTwst 	PtfmSurge 	PtfmSway  	PtfmRoll  	PtfmPitch 	M2N1TDXss 	M2N1TDYss 	M1N1TDXss 	M1N1TDYss 
(s)       	(m)       	(m)       	(deg)     	(m)       	(m)       	(deg)     	(deg)     	(m)       	(m)       	(m)       	(m)       
    0.0000	 0.000E+00	 0.000E+00	 0.000E+00	 0.000E+00	 0.000E+00	 0.000E+00	 0.000E+00	 0.000E+00	 0.000E+00	 0.000E+00	 0.000E+00
    0.0500	-4.622E-04	-1.444E-20	 0.000E+00	 1.092E-02	-5.394E-20	-6.231E-19	-2.091E-02	 9.475E-03	-1.838E-19	 0.000E+00	 0.000E+00
    0.1000	-5.155E-03	-1.302E-19	 0.000E+00	 4.947E-02	 7.905E-20	 5.178E-19	 3.303E-02	 3.344E-02	 8.245E-20	 0.000E+00	 0.000E+00
    0.1500	-5.789E-03	-2.525E-19	 0.000E+00	 1.009E-01	-2.674E-20	 1.211E-18	 1.258E-01	 6.375E-02	 5.136E-20	 0.000E+00	 0.000E+00
    0.2000	 7.584E-03	-9.580E-20	 0.000E+00	 1.393E-01	-7.326E-19	 1.006E-18	 1.901E-01	 8.679E-02	-5.527E-19	 0.000E+00	 0.000E+00
    0.2500	 3.230E-02	 1.316E-19	 0.000E+00	 1.724E-01	-7.242E-19	 1.930E-18	 2.401E-01	 1.071E-01	-4.507E-19	 0.000E+00	 0.000E+00
    0.3000	 5.910E-02	 7.497E-20	 0.000E+00	 2.231E-01	 1.711E-19	-3.572E-19	 3.335E-01	 1.371E-01	 3.743E-20	 0.000E+00	 0.000E+00
    0.3500	 8.733E-02	 4.583E-20	 0.000E+00	 2.856E-01	 6.063E-19	-1.996E-18	 4.587E-01	 1.733E-01	 2.310E-19	 0.000E+00	 0.000E+00
    0.4000	 1.243E-01	 1.600E-19	 0.000E+00	 3.315E-01	 3.751E-19	-9.473E-19	 5.441E-01	 2.001E-01	 1.585E-19	 0.000E+00	 0.000E+00
    0.4500	 1.721E-01	 3.408E-19	 0.000E+00	 3.544E-01	-2.761E-19	 1.050E-18	 5.685E-01	 2.147E-01	-1.531E-19	 0.000E+00	 0.000E+00
    0.5000	 2.251E-01	 4.583E-19	 0.000E+00	 3.776E-01	-6.068E-19	 2.368E-18	 5.862E-01	 2.303E-01	-2.961E-19	 0.000E+00	 0.000E+00
    0.5500	 2.825E-01	 4.724E-19	 0.000E+00	 4.147E-01	-3.532E-19	 6.859E-19	 6.363E-01	 2.536E-01	-2.697E-19	 0.000E+00	 0.000E+00
    0.6000	 3.522E-01	 6.275E-19	 0.000E+00	 4.518E-01	 1.846E-20	-4.563E-19	 6.927E-01	 2.764E-01	-9.060E-20	 0.000E+00	 0.000E+00
    0.6500	 4.413E-01	 9.110E-19	 0.000E+00	 4.784E-01	 2.275E-19	-5.144E-19	 7.298E-01	 2.927E-01	 7.944E-20	 0.000E+00	 0.000E+00
    0.7000	 5.477E-01	 1.318E-18	 0.000E+00	 5.091E-01	 2.421E-20	 5.000E-19	 7.797E-01	 3.112E-01	 4.194E-20	 0.000E+00	 0.000E+00
    0.7500	 6.664E-01	 1.799E-18	 0.000E+00	 5.604E-01	-1.541E-19	 5.103E-19	 8.816E-01	 3.409E-01	-1.125E-19	 0.000E+00	 0.000E+00
    0.8000	 7.986E-01	 2.153E-18	 0.000E+00	 6.225E-01	 3.177E-19	-1.958E-18	 1.015E+00	 3.763E-01	 9.772E-21	 0.000E+00	 0.000E+00
    0.8500	 9.479E-01	 2.245E-18	 0.000E+00	 6.744E-01	 8.714E-19	-2.867E-18	 1.129E+00	 4.055E-01	 3.734E-19	 0.000E+00	 0.000E+00
    0.9000	 1.112E+00	 2.057E-18	 0.000E+00	 7.143E-01	 8.154E-19	-1.739E-18	 1.214E+00	 4.280E-01	 4.426E-19	 0.000E+00	 0.000E+00
    0.9500	 1.283E+00	 2.065E-18	 0.000E+00	 7.560E-01	 2.609E-20	-1.554E-19	 1.297E+00	 4.521E-01	-6.053E-21	 0.000E+00	 0.000E+00
    1.0000	 1.462E+00	 2.257E-18	 0.000E+00	 8.012E-01	-1.741E-19	 4.189E-20	 1.385E+00	 4.785E-01	-1.857E-19	 0.000E+00	 0.000E+00
    1.0500	 1.651E+00	 2.269E-18	 0.000E+00	 8.369E-01	-5.728E-20	-7.838E-21	 1.451E+00	 4.996E-01	-9.461E-20	 0.000E+00	 0.000E+00
    1.1000	 1.855E+00	 2.051E-18	 0.000E+00	 8.601E-01	-5.100E-19	 2.081E-18	 1.488E+00	 5.135E-01	-2.319E-19	 0.000E+00	 0.000E+00
    1.1500	 2.071E+00	 2.011E-18	 0.000E+00	 8.865E-01	-8.925E-19	 2.981E-18	 1.534E+00	 5.291E-01	-4.506E-19	 0.000E+00	 0.000E+00
    1.2000	 2.297E+00	 2.534E-18	 0.000E+00	 9.281E-01	-5.010E-19	 9.676E-19	 1.621E+00	 5.529E-01	-3.453E-19	 0.000E+00	 0.000E+00
    1.2500	 2.537E+00	 3.181E-18	 0.000E+00	 9.777E-01	 1.294E-19	-7.697E-19	 1.732E+00	 5.808E-01	-3.735E-21	 0.000E+00	 0.000E+00
    1.3000	 2.791E+00	 3.249E-18	 0.000E+00	 1.024E+00	 3.629E-19	-8.596E-19	 1.843E+00	 6.063E-01	 1.763E-19	 0.000E+00	 0.000E+00
    1.3500	 3.056E+00	 3.082E-18	 0.000E+00	 1.070E+00	 5.191E-19	-1.677E-18	 1.955E+00	 6.309E-01	 2.236E-19	 0.000E+00	 0.000E+00
    1.4000	 3.326E+00	 3.535E-18	 0.000E+00	 1.121E+00	 1.031E-18	-3.412E-18	 2.081E+00	 6.590E-01	 4.454E-19	 0.000E+00	 0.000E+00
    1.4500	 3.597E+00	 4.095E-18	 0.000E+00	 1.173E+00	 1.318E-18	-3.979E-18	 2.208E+00	 6.877E-01	 6.451E-19	 0.000E+00	 0.000E+00
    1.5000	 3.871E+00	 3.642E-18	 0.000E+00	 1.214E+00	 8.227E-19	-2.227E-18	 2.303E+00	 7.099E-01	 4.200E-19	 0.000E+00	 0.000E+00
    1.5500	 4.147E+00	 2.762E-18	 0.000E+00	 1.240E+00	 7.888E-21	-6.798E-20	 2.364E+00	 7.247E-01	-2.171E-20	 0.000E+00	 0.000E+00
    1.6000	 4.422E+00	 2.720E-18	 0.000E+00	 1.265E+00	-1.854E-19	 3.686E-19	 2.417E+00	 7.386E-01	-1.460E-19	 0.000E+00	 0.000E+00
    1.6500	 4.694E+00	 3.134E-18	 0.000E+00	 1.295E+00	-1.063E-19	 2.459E-19	 2.481E+00	 7.553E-01	-8.418E-20	 0.000E+00	 0.000E+00
    1.7000	 4.966E+00	 2.749E-18	 0.000E+00	 1.325E+00	-3.661E-19	 1.279E-18	 2.550E+00	 7.722E-01	-1.851E-19	 0.000E+00	 0.000E+00
    1.7500	 5.240E+00	 1.975E-18	 0.000E+00	 1.353E+00	-7.372E-19	 1.956E-18	 2.619E+00	 7.875E-01	-4.262E-19	 0.000E+00	 0.000E+00
    1.8000	 5.514E+00	 2.184E-18	 0.000E+00	 1.385E+00	-4.626E-19	 8.780E-19	 2.704E+00	 8.047E-01	-3.066E-19	 0.000E+00	 0.000E+00
    1.8500	 5.782E+00	 2.960E-18	 0.000E+00	 1.427E+00	 2.833E-19	-8.271E-19	 2.814E+00	 8.271E-01	 1.315E-19	 0.000E+00	 0.000E+00
    1.9000	 6.043E+00	 2.654E-18	 0.000E+00	 1.472E+00	 8.122E-19	-2.282E-18	 2.934E+00	 8.509E-01	 4.212E-19	 0.000E+00	 0.000E+00
    1.9500	 6.296E+00	 1.625E-18	 0.000E+00	 1.510E+00	 8.578E-19	-2.589E-18	 3.034E+00	 8.705E-01	 4.105E-19	 0.000E+00	 0.000E+00
    2.0000	 6.537E+00	 1.612E-18	 0.000E+00	 1.537E+00	 6.721E-19	-2.247E-18	 3.109E+00	 8.847E-01	 2.987E-19	 0.000E+00	 0.000E+00
    2.0500	 6.762E+00	 2.236E-18	 0.000E+00	 1.559E+00	 4.190E-19	-1.596E-18	 3.167E+00	 8.967E-01	 1.640E-19	 0.000E+00	 0.000E+00
    2.1000	 6.970E+00	 1.586E-18	 0.000E+00	 1.578E+00	 3.806E-19	-1.559E-18	 3.213E+00	 9.071E-01	 1.477E-19	 0.000E+00	 0.000E+00
    2.1500	 7.163E+00	 5.091E-20	 0.000E+00	 1.590E+00	 3.759E-19	-9.371E-19	 3.241E+00	 9.136E-01	 1.900E-19	 0.000E+00	 0.000E+00
    2.2000	 7.340E+00	-3.782E-19	 0.000E+00	 1.595E+00	-2.452E-20	 3.337E-19	 3.253E+00	 9.165E-01	 7.380E-21	 0.000E+00	 0.000E+00
    2.2500	 7.503E+00	 9.381E-20	 0.000E+00	 1.603E+00	-6.524E-19	 1.676E-18	 3.272E+00	 9.205E-01	-3.642E-19	 0.000E+00	 0.000E+00
    2.3000	 7.650E+00	-4.532E-19	 0.000E+00	 1.618E+00	-9.144E-19	 2.513E-18	 3.313E+00	 9.284E-01	-4.873E-19	 0.000E+00	 0.000E+00
    2.3500	 7.780E+00	-1.839E-18	 0.000E+00	 1.637E+00	-6.904E-19	 2.201E-18	 3.368E+00	 9.386E-01	-3.569E-19	 0.000E+00	 0.000E+00
    2.4000	 7.894E+00	-2.095E-18	 0.000E+00	 1.655E+00	-3.957E-19	 1.206E-18	 3.422E+00	 9.476E-01	-2.102E-19	 0.000E+00	 0.000E+00
    2.4500	 7.989E+00	-1.323E-18	 0.000E+00	 1.670E+00	-1.452E-19	 4.857E-19	 3.469E+00	 9.549E-01	-6.886E-20	 0.000E+00	 0.000E+00
    2.5000	 8.061E+00	-1.486E-18	 0.000E+00	 1.683E+00	 4.683E-20	-1.809E-19	 3.510E+00	 9.614E-01	 2.085E-20	 0.000E+00	 0.000E+00
    2.5500	 8.108E+00	-2.499E-18	 0.000E+00	 1.691E+00	 2.529E-19	-7.270E-19	 3.534E+00	 9.654E-01	 1.281E-19	 0.000E+00	 0.000E+00
    2.6000	 8.131E+00	-2.531E-18	 0.000E+00	 1.689E+00	 5.662E-19	-1.524E-18	 3.529E+00	 9.643E-01	 2.980E-19	 0.000E+00	 0.000E+00
    2.6500	 8.130E+00	-1.764E-18	 0.000E+00	 1.679E+00	 7.317E-19	-2.235E-18	 3.498E+00	 9.589E-01	 3.712E-19	 0.000E+00	 0.000E+00
    2.7000	 8.105E+00	-2.119E-18	 0.000E+00	 1.666E+00	 6.037E-19	-1.915E-18	 3.458E+00	 9.523E-01	 2.978E-19	 0.000E+00	 0.000E+00
    2.7500	 8.058E+00	-3.421E-18	 0.000E+00	 1.655E+00	 1.183E-19	-2.654E-19	 3.423E+00	 9.473E-01	 6.350E-20	 0.000E+00	 0.000E+00
    2.8000	 7.992E+00	-3.755E-18	 0.000E+00	 1.647E+00	-5.372E-19	 1.756E-18	 3.397E+00	 9.436E-01	-2.597E-19	 0.000E+00	 0.000E+00
    2.8500	 7.909E+00	-3.268E-18	 0.000E+00	 1.642E+00	-9.306E-19	 2.502E-18	 3.379E+00	 9.410E-01	-5.052E-19	 0.000E+00	 0.000E+00
    2.9000	 7.809E+00	-3.803E-18	 0.000E+00	 1.641E+00	-8.325E-19	 2.448E-18	 3.374E+00	 9.407E-01	-4.231E-19	 0.000E+00	 0.000E+00
    2.9500	 7.691E+00	-5.092E-18	 0.000E+00	 1.645E+00	-6.446E-19	 2.575E-18	 3.380E+00	 9.428E-01	-2.726E-19	 0.000E+00	 0.000E+00
    3.0000	 7.553E+00	-5.040E-18	 0.000E+00	 1.648E+00	-7.907E-19	 2.868E-18	 3.384E+00	 9.449E-01	-3.560E-19	 0.000E+00	 0.000E+00
    3.0500	 7.397E+00	-3.788E-18	 0.000E+00	 1.645E+00	-8.302E-19	 2.230E-18	 3.370E+00	 9.437E-01	-4.491E-19	 0.000E+00	 0.000E+00
    3.1000	 7.222E+00	-3.486E-18	 0.000E+00	 1.634E+00	-2.835E-19	 6.132E-19	 3.332E+00	 9.385E-01	-1.704E-19	 0.000E+00	 0.000E+00
    3.1500	 7.029E+00	-4.195E-18	 0.000E+00	 1.617E+00	 4.980E-19	-9.828E-19	 3.276E+00	 9.306E-01	 3.006E-19	 0.000E+00	 0.000E+00
    3.2000	 6.820E+00	-3.967E-18	 0.000E+00	 1.597E+00	 8.848E-19	-2.186E-18	 3.206E+00	 9.210E-01	 4.867E-19	 0.000E+00	 0.000E+00
    3.2500	 6.598E+00	-2.726E-18	 0.000E+00	 1.574E+00	 6.851E-19	-2.289E-18	 3.129E+00	 9.099E-01	 3.297E-19	 0.000E+00	 0.000E+00
    3.3000	 6.368E+00	-2.509E-18	 0.000E+00	 1.551E+00	 3.166E-19	-1.214E-18	 3.053E+00	 8.987E-01	 1.371E-19	 0.000E+00	 0.000E+00
    3.3500	 6.132E+00	-3.597E-18	 0.000E+00	 1.532E+00	 4.881E-20	-8.229E-20	 2.990E+00	 8.900E-01	 3.013E-20	 0.000E+00	 0.000E+00
    3.4000	 5.892E+00	-4.073E-18	 0.000E+00	 1.521E+00	-1.874E-19	 9.503E-19	 2.947E+00	 8.850E-01	-6.316E-20	 0.000E+00	 0.000E+00
    3.4500	 5.649E+00	-3.469E-18	 0.000E+00	 1.515E+00	-5.630E-19	 1.750E-18	 2.920E+00	 8.825E-01	-2.818E-19	 0.000E+00	 0.000E+00
    3.5000	 5.406E+00	-3.371E-18	 0.000E+00	 1.510E+00	-9.953E-19	 2.875E-18	 2.897E+00	 8.805E-01	-5.151E-19	 0.000E+00	 0.000E+00
    3.5500	 5.161E+00	-4.166E-18	 0.000E+00	 1.503E+00	-1.113E-18	 3.517E-18	 2.869E+00	 8.776E-01	-5.571E-19	 0.000E+00	 0.000E+00
    3.6000	 4.915E+00	-4.250E-18	 0.000E+00	 1.493E+00	-6.871E-19	 2.559E-18	 2.832E+00	 8.733E-01	-3.024E-19	 0.000E+00	 0.000E+00
    3.6500	 4.669E+00	-3.108E-18	 0.000E+00	 1.479E+00	-1.078E-19	 5.899E-19	 2.780E+00	 8.668E-01	-3.515E-20	 0.000E+00	 0.000E+00
    3.7000	 4.426E+00	-2.246E-18	 0.000E+00	 1.458E+00	 6.194E-20	-2.563E-19	 2.711E+00	 8.571E-01	 2.607E-20	 0.000E+00	 0.000E+00
    3.7500	 4.187E+00	-2.308E-18	 0.000E+00	 1.434E+00	-2.433E-20	-1.183E-20	 2.630E+00	 8.453E-01	-2.308E-20	 0.000E+00	 0.000E+00
    3.8000	 3.957E+00	-2.132E-18	 0.000E+00	 1.410E+00	 2.324E-19	-6.176E-19	 2.551E+00	 8.339E-01	 1.243E-19	 0.000E+00	 0.000E+00
    3.8500	 3.738E+00	-1.268E-18	 0.000E+00	 1.391E+00	 7.620E-19	-2.204E-18	 2.485E+00	 8.248E-01	 3.936E-19	 0.000E+00	 0.000E+00
    3.9000	 3.533E+00	-8.161E-19	 0.000E+00	 1.378E+00	 7.588E-19	-2.074E-18	 2.437E+00	 8.186E-01	 4.068E-19	 0.000E+00	 0.000E+00
    3.9500	 3.346E+00	-1.184E-18	 0.000E+00	 1.370E+00	-1.607E-19	 2.282E-19	 2.408E+00	 8.150E-01	-1.115E-19	 0.000E+00	 0.000E+00
    4.0000	 3.175E+00	-1.435E-18	 0.000E+00	 1.367E+00	-6.948E-19	 1.850E-18	 2.395E+00	 8.140E-01	-3.720E-19	 0.000E+00	 0.000E+00
    4.0500	 3.022E+00	-1.091E-18	 0.000E+00	 1.368E+00	-2.615E-19	 9.077E-19	 2.392E+00	 8.147E-01	-1.226E-19	 0.000E+00	 0.000E+00
    4.1000	 2.885E+00	-9.204E-19	 0.000E+00	 1.368E+00	 1.299E-19	 8.567E-20	 2.388E+00	 8.153E-01	 1.119E-19	 0.000E+00	 0.000E+00
    4.1500	 2.765E+00	-1.216E-18	 0.000E+00	 1.364E+00	-3.897E-19	 1.469E-18	 2.373E+00	 8.137E-01	-1.700E-19	 0.000E+00	 0.000E+00
    4.2000	 2.661E+00	-1.065E-18	 0.000E+00	 1.356E+00	-9.991E-19	 2.849E-18	 2.345E+00	 8.096E-01	-5.250E-19	 0.000E+00	 0.000E+00
    4.2500	 2.576E+00	-9.521E-20	 0.000E+00	 1.344E+00	-7.532E-19	 2.062E-18	 2.306E+00	 8.039E-01	-4.049E-19	 0.000E+00	 0.000E+00
    4.3000	 2.510E+00	 7.095E-19	 0.000E+00	 1.332E+00	-5.627E-20	 2.357E-19	 2.266E+00	 7.978E-01	-2.194E-20	 0.000E+00	 0.000E+00
    4.3500	 2.465E+00	 9.095E-19	 0.000E+00	 1.321E+00	 1.871E-19	-2.361E-19	 2.231E+00	 7.923E-01	 1.282E-19	 0.000E+00	 0.000E+00
    4.4000	 2.444E+00	 1.347E-18	 0.000E+00	 1.314E+00	 9.904E-20	-3.327E-19	 2.209E+00	 7.888E-01	 4.665E-20	 0.000E+00	 0.000E+00
    4.4500	 2.448E+00	 2.426E-18	 0.000E+00	 1.313E+00	 2.889E-19	-1.432E-18	 2.209E+00	 7.887E-01	 8.990E-20	 0.000E+00	 0.000E+00
    4.5000	 2.476E+00	 3.167E-18	 0.000E+00	 1.320E+00	 7.281E-19	-2.353E-18	 2.231E+00	 7.922E-01	 3.556E-19	 0.000E+00	 0.000E+00
    4.5500	 2.527E+00	 2.952E-18	 0.000E+00	 1.332E+00	 8.337E-19	-2.243E-18	 2.269E+00	 7.981E-01	 4.558E-19	 0.000E+00	 0.000E+00
    4.6000	 2.600E+00	 2.659E-18	 0.000E+00	 1.346E+00	 7.055E-19	-2.040E-18	 2.312E+00	 8.046E-01	 3.641E-19	 0.000E+00	 0.000E+00
    4.6500	 2.693E+00	 3.094E-18	 0.000E+00	 1.358E+00	 5.068E-19	-1.879E-18	 2.351E+00	 8.104E-01	 2.177E-19	 0.000E+00	 0.000E+00
    4.7000	 2.803E+00	 3.506E-18	 0.000E+00	 1.367E+00	 6.146E-20	-4.059E-19	 2.382E+00	 8.147E-01	 9.849E-21	 0.000E+00	 0.000E+00
    4.7500	 2.930E+00	 3.163E-18	 0.000E+00	 1.372E+00	-5.839E-19	 1.985E-18	 2.402E+00	 8.170E-01	-2.663E-19	 0.000E+00	 0.000E+00
    4.8000	 3.073E+00	 2.898E-18	 0.000E+00	 1.373E+00	-8.619E-19	 2.887E-18	 2.411E+00	 8.174E-01	-3.975E-19	 0.000E+00	 0.000E+00
    4.8500	 3.232E+00	 3.602E-18	 0.000E+00	 1.374E+00	-5.700E-19	 1.533E-18	 2.417E+00	 8.171E-01	-3.129E-19	 0.000E+00	 0.000E+00
    4.9000	 3.407E+00	 4.566E-18	 0.000E+00	 1.376E+00	-2.588E-19	 4.568E-19	 2.431E+00	 8.181E-01	-1.612E-19	 0.000E+00	 0.000E+00
    4.9500	 3.598E+00	 4.866E-18	 0.000E+00	 1.384E+00	-2.149E-19	 5.022E-19	 2.460E+00	 8.216E-01	-1.171E-19	 0.000E+00	 0.000E+00
    5.0000	 3.804E+00	 5.028E-18	 0.000E+00	 1.398E+00	 1.548E-19	-6.769E-19	 2.509E+00	 8.281E-01	 6.347E-20	 0.000E+00	 0.000E+00
    5.0500	 4.025E+00	 5.796E-18	 0.000E+00	 1.417E+00	 1.132E-18	-3.701E-18	 2.573E+00	 8.370E-01	 5.488E-19	 0.000E+00	 0.000E+00
    5.1000	 4.256E+00	 6.404E-18	 0.000E+00	 1.439E+00	 1.892E-18	-5.806E-18	 2.648E+00	 8.477E-01	 9.519E-19	 0.000E+00	 0.000E+00
    5.1500	 4.495E+00	 5.949E-18	 0.000E+00	 1.462E+00	 1.572E-18	-4.849E-18	 2.726E+00	 8.587E-01	 7.891E-19	 0.000E+00	 0.000E+00
    5.2000	 4.739E+00	 5.203E-18	 0.000E+00	 1.483E+00	 7.369E-19	-2.441E-18	 2.796E+00	 8.685E-01	 3.533E-19	 0.000E+00	 0.000E+00
    5.2500	 4.984E+00	 5.177E-18	 0.000E+00	 1.498E+00	 3.414E-19	-1.362E-18	 2.851E+00	 8.757E-01	 1.398E-19	 0.000E+00	 0.000E+00
    5.3000	 5.229E+00	 5.140E-18	 0.000E+00	 1.509E+00	 2.597E-19	-9.221E-19	 2.890E+00	 8.804E-01	 1.248E-19	 0.000E+00	 0.000E+00
    5.3500	 5.472E+00	 4.144E-18	 0.000E+00	 1.516E+00	-1.503E-19	 5.999E-19	 2.919E+00	 8.833E-01	-6.179E-20	 0.000E+00	 0.000E+00
    5.4000	 5.713E+00	 3.236E-18	 0.000E+00	 1.522E+00	-8.635E-19	 2.657E-18	 2.946E+00	 8.858E-01	-4.308E-19	 0.000E+00	 0.000E+00
    5.4500	 5.951E+00	 3.614E-18	 0.000E+00	 1.530E+00	-1.099E-18	 3.055E-18	 2.977E+00	 8.892E-01	-5.785E-19	 0.000E+00	 0.000E+00
    5.5000	 6.186E+00	 4.216E-18	 0.000E+00	 1.541E+00	-5.080E-19	 1.294E-18	 3.019E+00	 8.943E-01	-2.688E-19	 0.000E+00	 0.000E+00
    5.5500	 6.416E+00	 3.626E-18	 0.000E+00	 1.557E+00	 3.824E-19	-1.215E-18	 3.075E+00	 9.019E-01	 1.823E-19	 0.000E+00	 0.000E+00
    5.6000	 6.640E+00	 2.831E-18	 0.000E+00	 1.577E+00	 8.677E-19	-2.498E-18	 3.143E+00	 9.115E-01	 4.502E-19	 0.000E+00	 0.000E+00
    5.6500	 6.854E+00	 3.271E-18	 0.000E+00	 1.599E+00	 9.132E-19	-2.929E-18	 3.215E+00	 9.218E-01	 4.469E-19	 0.000E+00	 0.000E+00
    5.7000	 7.055E+00	 3.837E-18	 0.000E+00	 1.618E+00	 9.204E-19	-3.308E-18	 3.281E+00	 9.312E-01	 4.229E-19	 0.000E+00	 0.000E+00
    5.7500	 7.240E+00	 2.755E-18	 0.000E+00	 1.634E+00	 1.097E-18	-3.549E-18	 3.333E+00	 9.383E-01	 5.341E-19	 0.000E+00	 0.000E+00
    5.8000	 7.408E+00	 1.053E-18	 0.000E+00	 1.643E+00	 1.076E-18	-2.762E-18	 3.367E+00	 9.427E-01	 5.904E-19	 0.000E+00	 0.000E+00
    5.8500	 7.557E+00	 7.203E-19	 0.000E+00	 1.647E+00	 4.230E-19	-1.092E-18	 3.384E+00	 9.444E-01	 2.271E-19	 0.000E+00	 0.000E+00
    5.9000	 7.687E+00	 9.057E-19	 0.000E+00	 1.647E+00	-4.344E-19	 7.783E-19	 3.388E+00	 9.441E-01	-2.653E-19	 0.000E+00	 0.000E+00
    5.9500	 7.798E+00	-3.087E-19	 0.000E+00	 1.645E+00	-8.543E-19	 2.250E-18	 3.386E+00	 9.430E-01	-4.635E-19	 0.000E+00	 0.000E+00
    6.0000	 7.890E+00	-2.040E-18	 0.000E+00	 1.645E+00	-8.206E-19	 2.894E-18	 3.389E+00	 9.427E-01	-3.840E-19	 0.000E+00	 0.000E+00
    6.0500	 7.965E+00	-2.190E-18	 0.000E+00	 1.649E+00	-8.470E-19	 2.947E-18	 3.401E+00	 9.442E-01	-3.891E-19	 0.000E+00	 0.000E+00
    6.1000	 8.021E+00	-1.501E-18	 0.000E+00	 1.655E+00	-8.418E-19	 2.336E-18	 3.424E+00	 9.475E-01	-4.443E-19	 0.000E+00	 0.000E+00
    6.1500	 8.058E+00	-2.028E-18	 0.000E+00	 1.664E+00	-5.139E-19	 1.338E-18	 3.452E+00	 9.520E-01	-2.802E-19	 0.000E+00	 0.000E+00
    6.2000	 8.074E+00	-3.183E-18	 0.000E+00	 1.673E+00	 2.011E-20	 2.485E-19	 3.480E+00	 9.564E-01	 3.514E-20	 0.000E+00	 0.000E+00
    6.2500	 8.068E+00	-3.026E-18	 0.000E+00	 1.680E+00	 4.927E-19	-1.281E-18	 3.498E+00	 9.596E-01	 2.687E-19	 0.000E+00	 0.000E+00
    6.3000	 8.038E+00	-2.185E-18	 0.000E+00	 1.681E+00	 8.371E-19	-2.619E-18	 3.501E+00	 9.602E-01	 4.137E-19	 0.000E+00	 0.000E+00
    6.3500	 7.985E+00	-2.708E-18	 0.000E+00	 1.676E+00	 8.894E-19	-2.628E-18	 3.483E+00	 9.578E-01	 4.561E-19	 0.000E+00	 0.000E+00
    6.4000	 7.908E+00	-4.128E-18	 0.000E+00	 1.665E+00	 5.730E-19	-1.442E-18	 3.449E+00	 9.526E-01	 3.128E-19	 0.000E+00	 0.000E+00
    6.4500	 7.811E+00	-4.459E-18	 0.000E+00	 1.651E+00	 8.209E-20	-1.566E-19	 3.404E+00	 9.459E-01	 4.596E-20	 0.000E+00	 0.000E+00
    6.5000	 7.694E+00	-4.075E-18	 0.000E+00	 1.637E+00	-3.049E-19	 8.672E-19	 3.356E+00	 9.389E-01	-1.545E-19	 0.000E+00	 0.000E+00
    6.5500	 7.560E+00	-4.856E-18	 0.000E+00	 1.624E+00	-5.730E-19	 1.979E-18	 3.314E+00	 9.330E-01	-2.630E-19	 0.000E+00	 0.000E+00
    6.6000	 7.410E+00	-6.326E-18	 0.000E+00	 1.615E+00	-9.726E-19	 3.335E-18	 3.281E+00	 9.287E-01	-4.586E-19	 0.000E+00	 0.000E+00
    6.6500	 7.247E+00	-6.478E-18	 0.000E+00	 1.609E+00	-1.387E-18	 4.354E-18	 3.259E+00	 9.263E-01	-6.955E-19	 0.000E+00	 0.000E+00
    6.7000	 7.069E+00	-5.565E-18	 0.000E+00	 1.606E+00	-1.364E-18	 4.126E-18	 3.243E+00	 9.250E-01	-6.833E-19	 0.000E+00	 0.000E+00
    6.7500	 6.879E+00	-5.542E-18	 0.000E+00	 1.602E+00	-7.886E-19	 2.548E-18	 3.225E+00	 9.235E-01	-3.843E-19	 0.000E+00	 0.000E+00
    6.8000	 6.674E+00	-6.250E-18	 0.000E+00	 1.595E+00	-1.281E-19	 7.446E-19	 3.198E+00	 9.205E-01	-3.835E-20	 0.000E+00	 0.000E+00
    6.8500	 6.458E+00	-5.848E-18	 0.000E+00	 1.584E+00	 2.833E-19	-5.024E-19	 3.156E+00	 9.152E-01	 1.680E-19	 0.000E+00	 0.000E+00
    6.9000	 6.230E+00	-4.545E-18	 0.000E+00	 1.567E+00	 4.897E-19	-1.535E-18	 3.098E+00	 9.074E-01	 2.453E-19	 0.000E+00	 0.000E+00
    6.9500	 5.992E+00	-4.297E-18	 0.000E+00	 1.546E+00	 6.688E-19	-2.110E-18	 3.028E+00	 8.976E-01	 3.259E-19	 0.000E+00	 0.000E+00
    7.0000	 5.749E+00	-5.161E-18	 0.000E+00	 1.524E+00	 6.633E-19	-1.805E-18	 2.952E+00	 8.869E-01	 3.495E-19	 0.000E+00	 0.000E+00
    7.0500	 5.503E+00	-5.387E-18	 0.000E+00	 1.503E+00	 3.371E-19	-7.194E-19	 2.879E+00	 8.767E-01	 1.908E-19	 0.000E+00	 0.000E+00
    7.1000	 5.256E+00	-4.785E-18	 0.000E+00	 1.485E+00	-2.629E-19	 8.558E-19	 2.817E+00	 8.682E-01	-1.216E-19	 0.000E+00	 0.000E+00
    7.1500	 5.013E+00	-4.864E-18	 0.000E+00	 1.471E+00	-9.275E-19	 2.707E-18	 2.768E+00	 8.620E-01	-4.795E-19	 0.000E+00	 0.000E+00
    7.2000	 4.773E+00	-5.731E-18	 0.000E+00	 1.462E+00	-1.318E-18	 4.152E-18	 2.732E+00	 8.579E-01	-6.534E-19	 0.000E+00	 0.000E+00
    7.2500	 4.538E+00	-5.869E-18	 0.000E+00	 1.455E+00	-1.149E-18	 3.962E-18	 2.704E+00	 8.550E-01	-5.381E-19	 0.000E+00	 0.000E+00
    7.3000	 4.309E+00	-4.925E-18	 0.000E+00	 1.448E+00	-7.844E-19	 2.638E-18	 2.676E+00	 8.521E-01	-3.744E-19	 0.000E+00	 0.000E+00
    7.3500	 4.087E+00	-4.216E-18	 0.000E+00	 1.439E+00	-6.421E-19	 1.927E-18	 2.642E+00	 8.482E-01	-3.328E-19	 0.000E+00	 0.000E+00
    7.4000	 3.872E+00	-4.143E-18	 0.000E+00	 1.427E+00	-5.313E-19	 1.645E-18	 2.597E+00	 8.424E-01	-2.677E-19	 0.000E+00	 0.000E+00
    7.4500	 3.665E+00	-3.619E-18	 0.000E+00	 1.410E+00	 1.840E-20	 1.235E-19	 2.542E+00	 8.348E-01	 2.315E-20	 0.000E+00	 0.000E+00
    7.5000	 3.470E+00	-2.417E-18	 0.000E+00	 1.392E+00	 7.592E-19	-2.067E-18	 2.480E+00	 8.260E-01	 4.049E-19	 0.000E+00	 0.000E+00
    7.5500	 3.288E+00	-1.652E-18	 0.000E+00	 1.374E+00	 8.551E-19	-2.458E-18	 2.419E+00	 8.172E-01	 4.446E-19	 0.000E+00	 0.000E+00
    7.6000	 3.123E+00	-1.670E-18	 0.000E+00	 1.359E+00	 2.569E-19	-8.992E-19	 2.367E+00	 8.099E-01	 1.206E-19	 0.000E+00	 0.000E+00
    7.6500	 2.976E+00	-1.525E-18	 0.000E+00	 1.348E+00	-1.132E-19	 3.715E-19	 2.330E+00	 8.049E-01	-5.366E-20	 0.000E+00	 0.000E+00
    7.7000	 2.850E+00	-8.849E-19	 0.000E+00	 1.343E+00	-3.246E-20	 1.917E-19	 2.310E+00	 8.025E-01	-1.058E-20	 0.000E+00	 0.000E+00
    7.7500	 2.744E+00	-5.540E-19	 0.000E+00	 1.342E+00	-2.000E-19	 5.530E-19	 2.304E+00	 8.024E-01	-1.069E-19	 0.000E+00	 0.000E+00
    7.8000	 2.658E+00	-7.735E-19	 0.000E+00	 1.344E+00	-6.841E-19	 1.996E-18	 2.308E+00	 8.036E-01	-3.555E-19	 0.000E+00	 0.000E+00
    7.8500	 2.592E+00	-5.848E-19	 0.000E+00	 1.346E+00	-8.065E-19	 2.639E-18	 2.313E+00	 8.050E-01	-3.875E-19	 0.000E+00	 0.000E+00
    7.9000	 2.546E+00	 3.956E-19	 0.000E+00	 1.347E+00	-4.025E-19	 1.464E-18	 2.314E+00	 8.054E-01	-1.778E-19	 0.000E+00	 0.000E+00
    7.9500	 2.519E+00	 1.317E-18	 0.000E+00	 1.345E+00	-1.843E-19	 6.556E-19	 2.306E+00	 8.044E-01	-8.384E-20	 0.000E+00	 0.000E+00
    8.0000	 2.511E+00	 1.761E-18	 0.000E+00	 1.340E+00	-3.823E-19	 9.500E-19	 2.292E+00	 8.020E-01	-2.177E-19	 0.000E+00	 0.000E+00
    8.0500	 2.523E+00	 2.404E-18	 0.000E+00	 1.334E+00	-8.003E-20	 1.718E-19	 2.274E+00	 7.990E-01	-4.353E-20	 0.000E+00	 0.000E+00
    8.1000	 2.557E+00	 3.632E-18	 0.000E+00	 1.329E+00	 6.793E-19	-2.044E-18	 2.261E+00	 7.966E-01	 3.438E-19	 0.000E+00	 0.000E+00
    8.1500	 2.612E+00	 4.649E-18	 0.000E+00	 1.328E+00	 9.226E-19	-2.922E-18	 2.260E+00	 7.959E-01	 4.565E-19	 0.000E+00	 0.000E+00
    8.2000	 2.691E+00	 4.912E-18	 0.000E+00	 1.332E+00	 5.216E-19	-1.863E-18	 2.274E+00	 7.976E-01	 2.397E-19	 0.000E+00	 0.000E+00
    8.2500	 2.791E+00	 5.123E-18	 0.000E+00	 1.341E+00	 3.672E-19	-1.341E-18	 2.305E+00	 8.020E-01	 1.695E-19	 0.000E+00	 0.000E+00
    8.3000	 2.912E+00	 5.786E-18	 0.000E+00	 1.355E+00	 7.135E-19	-2.372E-18	 2.350E+00	 8.085E-01	 3.401E-19	 0.000E+00	 0.000E+00
    8.3500	 3.051E+00	 6.181E-18	 0.000E+00	 1.370E+00	 7.809E-19	-2.512E-18	 2.401E+00	 8.159E-01	 3.843E-19	 0.000E+00	 0.000E+00
    8.4000	 3.207E+00	 5.861E-18	 0.000E+00	 1.385E+00	 1.875E-19	-7.167E-19	 2.451E+00	 8.230E-01	 8.188E-20	 0.000E+00	 0.000E+00
    8.4500	 3.378E+00	 5.755E-18	 0.000E+00	 1.398E+00	-3.462E-19	 9.166E-19	 2.495E+00	 8.290E-01	-1.870E-19	 0.000E+00	 0.000E+00
    8.5000	 3.561E+00	 6.517E-18	 0.000E+00	 1.407E+00	-3.525E-19	 8.604E-19	 2.529E+00	 8.333E-01	-1.914E-19	 0.000E+00	 0.000E+00
    8.5500	 3.755E+00	 7.202E-18	 0.000E+00	 1.414E+00	-1.023E-19	 1.647E-19	 2.556E+00	 8.363E-01	-6.057E-20	 0.000E+00	 0.000E+00
    8.6000	 3.960E+00	 7.119E-18	 0.000E+00	 1.420E+00	 1.098E-20	-1.725E-19	 2.580E+00	 8.387E-01	-2.850E-21	 0.000E+00	 0.000E+00
    8.6500	 4.176E+00	 7.236E-18	 0.000E+00	 1.427E+00	 1.830E-19	-7.137E-19	 2.608E+00	 8.416E-01	 8.048E-20	 0.000E+00	 0.000E+00
    8.7000	 4.401E+00	 8.250E-18	 0.000E+00	 1.437E+00	 6.027E-19	-2.066E-18	 2.646E+00	 8.462E-01	 2.863E-19	 0.000E+00	 0.000E+00
    8.7500	 4.634E+00	 9.014E-18	 0.000E+00	 1.451E+00	 1.028E-18	-3.551E-18	 2.697E+00	 8.528E-01	 4.847E-19	 0.000E+00	 0.000E+00
    8.8000	 4.875E+00	 8.556E-18	 0.000E+00	 1.469E+00	 1.197E-18	-4.054E-18	 2.760E+00	 8.615E-01	 5.690E-19	 0.000E+00	 0.000E+00
    8.8500	 5.119E+00	 7.928E-18	 0.000E+00	 1.490E+00	 1.188E-18	-3.817E-18	 2.831E+00	 8.714E-01	 5.775E-19	 0.000E+00	 0.000E+00
    8.9000	 5.365E+00	 8.161E-18	 0.000E+00	 1.512E+00	 1.090E-18	-3.514E-18	 2.904E+00	 8.816E-01	 5.360E-19	 0.000E+00	 0.000E+00
    8.9500	 5.609E+00	 8.210E-18	 0.000E+00	 1.531E+00	 7.884E-19	-2.706E-18	 2.970E+00	 8.907E-01	 3.746E-19	 0.000E+00	 0.000E+00
    9.0000	 5.848E+00	 7.031E-18	 0.000E+00	 1.547E+00	 2.731E-19	-9.112E-19	 3.026E+00	 8.980E-01	 1.370E-19	 0.000E+00	 0.000E+00
    9.0500	 6.081E+00	 5.819E-18	 0.000E+00	 1.558E+00	-1.687E-19	 3.936E-19	 3.068E+00	 9.033E-01	-9.860E-20	 0.000E+00	 0.000E+00
    9.1000	 6.307E+00	 5.896E-18	 0.000E+00	 1.567E+00	-3.577E-19	 7.854E-19	 3.100E+00	 9.069E-01	-2.085E-19	 0.000E+00	 0.000E+00
    9.1500	 6.523E+00	 6.180E-18	 0.000E+00	 1.573E+00	-3.186E-19	 7.155E-19	 3.127E+00	 9.097E-01	-1.758E-19	 0.000E+00	 0.000E+00
    9.2000	 6.730E+00	 5.322E-18	 0.000E+00	 1.580E+00	-1.686E-19	 4.277E-19	 3.155E+00	 9.127E-01	-8.745E-20	 0.000E+00	 0.000E+00
    9.2500	 6.927E+00	 4.365E-18	 0.000E+00	 1.590E+00	 8.261E-20	-3.157E-19	 3.189E+00	 9.169E-01	 3.511E-20	 0.000E+00	 0.000E+00
    9.3000	 7.114E+00	 4.638E-18	 0.000E+00	 1.602E+00	 4.466E-19	-1.661E-18	 3.233E+00	 9.227E-01	 1.937E-19	 0.000E+00	 0.000E+00
    9.3500	 7.287E+00	 4.985E-18	 0.000E+00	 1.617E+00	 8.374E-19	-2.928E-18	 3.283E+00	 9.298E-01	 3.932E-19	 0.000E+00	 0.000E+00
    9.4000	 7.446E+00	 3.848E-18	 0.000E+00	 1.633E+00	 1.067E-18	-3.283E-18	 3.336E+00	 9.373E-01	 5.394E-19	 0.000E+00	 0.000E+00
    9.4500	 7.588E+00	 2.319E-18	 0.000E+00	 1.647E+00	 9.062E-19	-2.674E-18	 3.384E+00	 9.443E-01	 4.629E-19	 0.000E+00	 0.000E+00
    9.5000	 7.711E+00	 2.014E-18	 0.000E+00	 1.658E+00	 5.138E-19	-1.780E-18	 3.421E+00	 9.495E-01	 2.372E-19	 0.000E+00	 0.000E+00
    9.5500	 7.813E+00	 1.897E-18	 0.000E+00	 1.664E+00	 2.374E-19	-1.126E-18	 3.444E+00	 9.524E-01	 8.668E-20	 0.000E+00	 0.000E+00
    9.6000	 7.894E+00	 3.605E-19	 0.000E+00	 1.666E+00	 6.799E-20	-1.381E-19	 3.451E+00	 9.530E-01	 4.105E-20	 0.000E+00	 0.000E+00
    9.6500	 7.953E+00	-1.463E-18	 0.000E+00	 1.664E+00	-3.164E-19	 1.330E-18	 3.446E+00	 9.518E-01	-1.241E-19	 0.000E+00	 0.000E+00
    9.7000	 7.992E+00	-1.780E-18	 0.000E+00	 1.660E+00	-7.672E-19	 2.327E-18	 3.435E+00	 9.497E-01	-3.925E-19	 0.000E+00	 0.000E+00
    9.7500	 8.010E+00	-1.557E-18	 0.000E+00	 1.656E+00	-8.745E-19	 2.387E-18	 3.425E+00	 9.478E-01	-4.607E-19	 0.000E+00	 0.000E+00
    9.8000	 8.009E+00	-2.579E-18	 0.000E+00	 1.654E+00	-6.039E-19	 1.990E-18	 3.420E+00	 9.470E-01	-2.879E-19	 0.000E+00	 0.000E+00
    9.8500	 7.988E+00	-3.988E-18	 0.000E+00	 1.655E+00	-3.345E-19	 1.408E-18	 3.421E+00	 9.474E-01	-1.333E-19	 0.000E+00	 0.000E+00
    9.9000	 7.948E+00	-3.995E-18	 0.000E+00	 1.657E+00	-1.980E-19	 5.872E-19	 3.427E+00	 9.487E-01	-1.069E-19	 0.000E+00	 0.000E+00
    9.9500	 7.888E+00	-3.442E-18	 0.000E+00	 1.660E+00	 2.913E-20	-3.924E-19	 3.432E+00	 9.501E-01	-1.285E-20	 0.000E+00	 0.000E+00
   10.0000	 7.807E+00	-4.244E-18	 0.000E+00	 1.660E+00	 3.738E-19	-9.395E-19	 3.431E+00	 9.504E-01	 2.060E-19	 0.000E+00	 0.000E+00
   10.0500	 7.706E+00	-5.713E-18	 0.000E+00	 1.657E+00	 4.804E-19	-8.743E-19	 3.417E+00	 9.489E-01	 2.970E-19	 0.000E+00	 0.000E+00
   10.1000	 7.584E+00	-5.940E-18	 0.000E+00	 1.648E+00	 1.570E-19	-4.636E-19	 3.388E+00	 9.451E-01	 6.813E-20	 0.000E+00	 0.000E+00
   10.1500	 7.443E+00	-5.550E-18	 0.000E+00	 1.636E+00	-2.087E-19	 3.462E-19	 3.346E+00	 9.391E-01	-1.314E-19	 0.000E+00	 0.000E+00
   10.2000	 7.285E+00	-6.415E-18	 0.000E+00	 1.621E+00	-3.753E-19	 1.262E-18	 3.294E+00	 9.318E-01	-1.820E-19	 0.000E+00	 0.000E+00
   10.2500	 7.110E+00	-7.937E-18	 0.000E+00	 1.604E+00	-5.345E-19	 2.213E-18	 3.239E+00	 9.240E-01	-2.154E-19	 0.000E+00	 0.000E+00
   10.3000	 6.923E+00	-8.190E-18	 0.000E+00	 1.589E+00	-8.668E-19	 2.993E-18	 3.187E+00	 9.168E-01	-4.101E-19	 0.000E+00	 0.000E+00
   10.3500	 6.725E+00	-7.567E-18	 0.000E+00	 1.577E+00	-1.145E-18	 3.281E-18	 3.142E+00	 9.110E-01	-5.996E-19	 0.000E+00	 0.000E+00
   10.4000	 6.517E+00	-7.847E-18	 0.000E+00	 1.567E+00	-1.113E-18	 3.538E-18	 3.106E+00	 9.065E-01	-5.452E-19	 0.000E+00	 0.000E+00
   10.4500	 6.301E+00	-8.739E-18	 0.000E+00	 1.559E+00	-8.165E-19	 3.073E-18	 3.075E+00	 9.031E-01	-3.600E-19	 0.000E+00	 0.000E+00
   10.5000	 6.078E+00	-8.527E-18	 0.000E+00	 1.551E+00	-4.313E-19	 1.748E-18	 3.045E+00	 8.997E-01	-1.817E-19	 0.000E+00	 0.000E+00
   10.5500	 5.847E+00	-7.462E-18	 0.000E+00	 1.542E+00	-1.201E-19	 3.741E-19	 3.009E+00	 8.955E-01	-6.391E-20	 0.000E+00	 0.000E+00
   10.6000	 5.611E+00	-7.279E-18	 0.000E+00	 1.529E+00	 7.984E-20	-2.793E-19	 2.963E+00	 8.898E-01	 2.909E-20	 0.000E+00	 0.000E+00
   10.6500	 5.371E+00	-7.903E-18	 0.000E+00	 1.513E+00	 2.130E-19	-1.566E-19	 2.907E+00	 8.823E-01	 1.485E-19	 0.000E+00	 0.000E+00
   10.7000	 5.129E+00	-7.784E-18	 0.000E+00	 1.494E+00	 2.181E-19	-2.300E-19	 2.841E+00	 8.733E-01	 1.481E-19	 0.000E+00	 0.000E+00
   10.7500	 4.887E+00	-6.968E-18	 0.000E+00	 1.474E+00	 1.340E-20	 2.325E-20	 2.772E+00	 8.637E-01	 8.594E-21	 0.000E+00	 0.000E+00
   10.8000	 4.649E+00	-6.892E-18	 0.000E+00	 1.454E+00	-4.485E-19	 1.354E-18	 2.706E+00	 8.544E-01	-2.302E-19	 0.000E+00	 0.000E+00
   10.8500	 4.417E+00	-7.521E-18	 0.000E+00	 1.437E+00	-8.977E-19	 3.005E-18	 2.647E+00	 8.465E-01	-4.297E-19	 0.000E+00	 0.000E+00
   10.9000	 4.193E+00	-7.441E-18	 0.000E+00	 1.424E+00	-1.022E-18	 3.490E-18	 2.600E+00	 8.404E-01	-4.825E-19	 0.000E+00	 0.000E+00
   10.9500	 3.980E+00	-6.514E-18	 0.000E+00	 1.415E+00	-9.414E-19	 3.017E-18	 2.565E+00	 8.362E-01	-4.648E-19	 0.000E+00	 0.000E+00
   11.0000	 3.777E+00	-5.992E-18	 0.000E+00	 1.408E+00	-8.908E-19	 2.732E-18	 2.537E+00	 8.332E-01	-4.516E-19	 0.000E+00	 0.000E+00
   11.0500	 3.586E+00	-5.979E-18	 0.000E+00	 1.402E+00	-8.136E-19	 2.694E-18	 2.513E+00	 8.306E-01	-3.930E-19	 0.000E+00	 0.000E+00