
FAST Summary File

Predictions were generated on 03-May-2022 at 09:10:22 using OpenFAST, compiled as a 64-bit application using double precision at commit -128-NOTFOUND
  compiled with
    NWTC Subroutine Library
    ElastoDyn
    BeamDyn [not called]
    InflowWind [not called]
    AeroDyn14 [not called]
    AeroDyn [not called]
    ServoDyn [not called]
    HydroDyn [not called]
    SubDyn
    ExtPtfm_MCKF [not called]
    MAP [not called]
    FEAMooring [not called]
    MoorDyn [not called]
    OrcaFlexInterface [not called]
    IceFloe [not called]
    IceDyn [not called]


Modeling a land-based turbine
Description from the FAST input file: 
  FAST Certification Test #19: NREL 5.0 MW Baseline Wind Turbine with OC3 Monopile RF Configuration, for use in offshore analysis

Interpolation order for input/output time histories: 2 (quadratic)
Number of correction iterations:  0
Number of rows in Jacobian matrix used for coupling ElastoDyn, SubDyn, HydroDyn, OrcaFlex, ExtPtfm_MCKF, and/or BeamDyn:     12


   Requested Time Steps  
  -------------------------------------------------
  Component          Time Step (s)    Subcycles (-)
  -----------------  ---------------  -------------
  FAST (glue code)    1.000E-03
  ElastoDyn           1.000E-03              1
  SubDyn              2.000E-04              5
  FAST output files   5.000E-02             50^-1


   Requested Channels in FAST Output File(s)  
  --------------------------------------------
  Number  Name        Units       Generated by
  ------  ----------  ----------  ------------
       1  Time        (s)         OpenFAST
       2  TwHt1TPxi   (m)         ElastoDyn
       3  TwHt1TPyi   (m)         ElastoDyn
       4  TTDspTwst   (deg)       ElastoDyn
       5  PtfmSurge   (m)         ElastoDyn
       6  PtfmSway    (m)         ElastoDyn
       7  PtfmRoll    (deg)       ElastoDyn
       8  PtfmPitch   (deg)       ElastoDyn
       9  M2N1TDXss   (m)         SubDyn
      10  M2N1TDYss   (m)         SubDyn
      11  M1N1TDXss   (m)         SubDyn
      12  M1N1TDYss   (m)         SubDyn
