
Predictions were generated on 03-May-2022 at 09:10:22 using OpenFAST, compiled as a 64-bit application using double precision at commit -128-NOTFOUND
 linked with  NWTC Subroutine Library; ElastoDyn; SubDyn

Description from the FAST input file: FAST Certification Test #19: NREL 5.0 MW Baseline Wind Turbine with OC3 Monopile RF Configuration, for use in offshore analysis

Time      	TwHt1TPxi 	TwHt1TPyi 	TTDspTwst 	PtfmSurge 	PtfmSway  	PtfmRoll  	PtfmPitch 	M2N1TDXss 	M2N1TDYss 	M1N1TDXss 	M1N1TDYss 
(s)       	(m)       	(m)       	(deg)     	(m)       	(m)       	(deg)     	(deg)     	(m)       	(m)       	(m)       	(m)       
    0.0000	 0.000E+00	 0.000E+00	 0.000E+00	 0.000E+00	 0.000E+00	 0.000E+00	 0.000E+00	 0.000E+00	 0.000E+00	 0.000E+00	 0.000E+00
    0.0500	 2.315E-05	 2.913E-21	 0.000E+00	 1.330E-03	 3.350E-21	 1.358E-20	-5.829E-03	 2.283E-03	 2.779E-21	 3.129E-03	 0.000E+00
    0.1000	-4.329E-04	-6.156E-21	 0.000E+00	 4.616E-03	 2.697E-20	-1.116E-20	-5.508E-03	 5.490E-03	 2.209E-20	 6.267E-03	 0.000E+00
    0.1500	-7.709E-04	-4.533E-21	 0.000E+00	 8.531E-03	-1.607E-22	-2.092E-20	-3.127E-03	 8.986E-03	-5.540E-21	 9.398E-03	 0.000E+00
    0.2000	-3.924E-04	 1.722E-20	 0.000E+00	 1.140E-02	-6.275E-20	 1.065E-19	-3.613E-03	 1.196E-02	-3.896E-20	 1.252E-02	 0.000E+00
    0.2500	 4.168E-04	 2.332E-20	 0.000E+00	 1.394E-02	-4.441E-20	 1.113E-19	-5.312E-03	 1.479E-02	-2.392E-20	 1.563E-02	 0.000E+00
    0.3000	 1.066E-03	 1.671E-21	 0.000E+00	 1.753E-02	 4.897E-20	-9.873E-20	-4.246E-03	 1.818E-02	 3.000E-20	 1.873E-02	 0.000E+00
    0.3500	 1.555E-03	-1.866E-20	 0.000E+00	 2.171E-02	 9.606E-20	-2.577E-19	-1.331E-03	 2.184E-02	 4.995E-20	 2.180E-02	 0.000E+00
    0.4000	 2.268E-03	-5.802E-22	 0.000E+00	 2.494E-02	 1.558E-20	-3.680E-20	-6.285E-04	 2.496E-02	 9.815E-21	 2.486E-02	 0.000E+00
    0.4500	 3.239E-03	 2.988E-20	 0.000E+00	 2.707E-02	-7.495E-20	 1.767E-19	-2.996E-03	 2.751E-02	-4.289E-20	 2.789E-02	 0.000E+00
    0.5000	 4.159E-03	 2.592E-20	 0.000E+00	 2.926E-02	-4.459E-20	 1.012E-19	-5.579E-03	 3.011E-02	-2.527E-20	 3.089E-02	 0.000E+00
    0.5500	 4.992E-03	-1.047E-20	 0.000E+00	 3.201E-02	 5.622E-20	-1.025E-19	-6.706E-03	 3.302E-02	 3.466E-20	 3.386E-02	 0.000E+00
    0.6000	 6.101E-03	-2.302E-20	 0.000E+00	 3.470E-02	 6.041E-20	-1.096E-19	-7.628E-03	 3.584E-02	 3.795E-20	 3.680E-02	 0.000E+00
    0.6500	 7.745E-03	 1.130E-20	 0.000E+00	 3.697E-02	-4.304E-20	 6.098E-20	-9.255E-03	 3.840E-02	-2.847E-20	 3.970E-02	 0.000E+00
    0.7000	 9.817E-03	 4.432E-20	 0.000E+00	 3.948E-02	-8.506E-20	 1.800E-19	-1.020E-02	 4.107E-02	-5.019E-20	 4.257E-02	 0.000E+00
    0.7500	 1.214E-02	 3.021E-20	 0.000E+00	 4.274E-02	 3.378E-21	 1.546E-20	-9.093E-03	 4.413E-02	 4.088E-21	 4.539E-02	 0.000E+00
    0.8000	 1.477E-02	 1.945E-21	 0.000E+00	 4.633E-02	 8.871E-20	-2.073E-19	-6.852E-03	 4.734E-02	 5.019E-20	 4.816E-02	 0.000E+00
    0.8500	 1.778E-02	 1.909E-20	 0.000E+00	 4.954E-02	 4.704E-20	-1.191E-19	-5.262E-03	 5.030E-02	 2.633E-20	 5.089E-02	 0.000E+00
    0.9000	 2.104E-02	 5.648E-20	 0.000E+00	 5.233E-02	-3.744E-20	 6.669E-20	-4.690E-03	 5.302E-02	-2.297E-20	 5.357E-02	 0.000E+00
    0.9500	 2.435E-02	 5.220E-20	 0.000E+00	 5.505E-02	-3.606E-20	 5.767E-20	-4.414E-03	 5.569E-02	-2.339E-20	 5.620E-02	 0.000E+00
    1.0000	 2.767E-02	 1.114E-20	 0.000E+00	 5.768E-02	 2.983E-20	-6.904E-20	-4.378E-03	 5.830E-02	 1.640E-20	 5.877E-02	 0.000E+00
    1.0500	 3.116E-02	-5.685E-21	 0.000E+00	 5.992E-02	 3.943E-20	-7.748E-20	-5.197E-03	 6.068E-02	 2.415E-20	 6.128E-02	 0.000E+00
    1.1000	 3.492E-02	 1.689E-20	 0.000E+00	 6.180E-02	-2.643E-20	 7.446E-20	-6.736E-03	 6.283E-02	-1.366E-20	 6.373E-02	 0.000E+00
    1.1500	 3.892E-02	 3.016E-20	 0.000E+00	 6.379E-02	-6.446E-20	 1.590E-19	-7.864E-03	 6.501E-02	-3.579E-20	 6.612E-02	 0.000E+00
    1.2000	 4.317E-02	 1.341E-20	 0.000E+00	 6.616E-02	-2.507E-20	 8.176E-20	-7.765E-03	 6.736E-02	-1.185E-20	 6.845E-02	 0.000E+00
    1.2500	 4.776E-02	 5.189E-21	 0.000E+00	 6.877E-02	 2.508E-20	-3.716E-20	-6.675E-03	 6.979E-02	 1.611E-20	 7.070E-02	 0.000E+00
    1.3000	 5.270E-02	 3.065E-20	 0.000E+00	 7.141E-02	 1.887E-20	-5.673E-20	-5.149E-03	 7.220E-02	 9.808E-21	 7.289E-02	 0.000E+00
    1.3500	 5.788E-02	 5.431E-20	 0.000E+00	 7.407E-02	 4.779E-22	-3.232E-20	-3.329E-03	 7.457E-02	-2.975E-21	 7.500E-02	 0.000E+00
    1.4000	 6.315E-02	 4.827E-20	 0.000E+00	 7.676E-02	 1.776E-20	-6.209E-20	-1.297E-03	 7.693E-02	 8.236E-21	 7.704E-02	 0.000E+00
    1.4500	 6.841E-02	 3.672E-20	 0.000E+00	 7.927E-02	 3.941E-20	-9.551E-20	 4.161E-04	 7.917E-02	 2.233E-20	 7.901E-02	 0.000E+00
    1.5000	 7.364E-02	 3.985E-20	 0.000E+00	 8.138E-02	 2.770E-20	-8.147E-20	 1.190E-03	 8.116E-02	 1.437E-20	 8.089E-02	 0.000E+00
    1.5500	 7.882E-02	 3.835E-20	 0.000E+00	 8.307E-02	 2.552E-21	-1.680E-20	 1.012E-03	 8.290E-02	 3.063E-22	 8.270E-02	 0.000E+00
    1.6000	 8.392E-02	 1.727E-20	 0.000E+00	 8.456E-02	-1.093E-20	 3.228E-20	 4.326E-04	 8.450E-02	-5.317E-21	 8.443E-02	 0.000E+00
    1.6500	 8.898E-02	-1.845E-22	 0.000E+00	 8.603E-02	-1.933E-20	 6.651E-20	-3.078E-05	 8.604E-02	-9.192E-21	 8.607E-02	 0.000E+00
    1.7000	 9.408E-02	 3.688E-21	 0.000E+00	 8.752E-02	-3.069E-20	 8.432E-20	-1.455E-04	 8.756E-02	-1.654E-20	 8.762E-02	 0.000E+00
    1.7500	 9.925E-02	 1.147E-20	 0.000E+00	 8.908E-02	-2.880E-20	 7.848E-20	 2.803E-04	 8.907E-02	-1.530E-20	 8.909E-02	 0.000E+00
    1.8000	 1.045E-01	 9.257E-21	 0.000E+00	 9.082E-02	-1.060E-20	 4.026E-20	 1.474E-03	 9.061E-02	-4.238E-21	 9.048E-02	 0.000E+00
    1.8500	 1.097E-01	 1.320E-20	 0.000E+00	 9.271E-02	 5.454E-21	-3.057E-21	 3.400E-03	 9.220E-02	 4.116E-21	 9.177E-02	 0.000E+00
    1.9000	 1.148E-01	 3.355E-20	 0.000E+00	 9.460E-02	 9.647E-21	-3.744E-20	 5.599E-03	 9.375E-02	 4.276E-21	 9.297E-02	 0.000E+00
    1.9500	 1.197E-01	 4.633E-20	 0.000E+00	 9.629E-02	 2.170E-20	-7.688E-20	 7.490E-03	 9.514E-02	 9.783E-21	 9.408E-02	 0.000E+00
    2.0000	 1.243E-01	 3.526E-20	 0.000E+00	 9.768E-02	 4.001E-20	-1.180E-19	 8.731E-03	 9.633E-02	 2.019E-20	 9.510E-02	 0.000E+00
    2.0500	 1.285E-01	 2.144E-20	 0.000E+00	 9.874E-02	 3.551E-20	-1.074E-19	 9.261E-03	 9.731E-02	 1.778E-20	 9.603E-02	 0.000E+00
    2.1000	 1.324E-01	 2.163E-20	 0.000E+00	 9.951E-02	 5.501E-21	-2.563E-20	 9.148E-03	 9.811E-02	 1.895E-21	 9.686E-02	 0.000E+00
    2.1500	 1.360E-01	 1.603E-20	 0.000E+00	 1.000E-01	-1.595E-20	 4.020E-20	 8.584E-03	 9.873E-02	-8.645E-21	 9.759E-02	 0.000E+00
    2.2000	 1.392E-01	-8.518E-21	 0.000E+00	 1.004E-01	-1.320E-20	 5.407E-20	 7.951E-03	 9.924E-02	-5.068E-21	 9.823E-02	 0.000E+00
    2.2500	 1.422E-01	-2.658E-20	 0.000E+00	 1.009E-01	-1.551E-20	 6.133E-20	 7.712E-03	 9.972E-02	-6.438E-21	 9.877E-02	 0.000E+00
    2.3000	 1.450E-01	-1.766E-20	 0.000E+00	 1.014E-01	-3.473E-20	 9.699E-20	 8.142E-03	 1.002E-01	-1.829E-20	 9.921E-02	 0.000E+00
    2.3500	 1.475E-01	-4.167E-21	 0.000E+00	 1.021E-01	-3.444E-20	 9.378E-20	 9.205E-03	 1.007E-01	-1.840E-20	 9.955E-02	 0.000E+00
    2.4000	 1.498E-01	-7.438E-21	 0.000E+00	 1.028E-01	-1.907E-21	 9.545E-21	 1.064E-02	 1.012E-01	-7.321E-22	 9.980E-02	 0.000E+00
    2.4500	 1.516E-01	-8.571E-21	 0.000E+00	 1.034E-01	 2.405E-20	-6.141E-20	 1.212E-02	 1.016E-01	 1.324E-20	 9.995E-02	 0.000E+00
    2.5000	 1.531E-01	 9.180E-21	 0.000E+00	 1.038E-01	 2.075E-20	-6.173E-20	 1.328E-02	 1.018E-01	 1.070E-20	 1.000E-01	 0.000E+00
    2.5500	 1.540E-01	 2.222E-20	 0.000E+00	 1.040E-01	 1.598E-20	-5.906E-20	 1.375E-02	 1.019E-01	 7.345E-21	 1.000E-01	 0.000E+00
    2.6000	 1.544E-01	 8.914E-21	 0.000E+00	 1.038E-01	 2.726E-20	-7.526E-20	 1.335E-02	 1.018E-01	 1.442E-20	 1.000E-01	 0.000E+00
    2.6500	 1.543E-01	-1.215E-20	 0.000E+00	 1.035E-01	 2.732E-20	-7.447E-20	 1.235E-02	 1.016E-01	 1.464E-20	 1.000E-01	 0.000E+00
    2.7000	 1.537E-01	-1.660E-20	 0.000E+00	 1.031E-01	-8.028E-22	-8.361E-21	 1.108E-02	 1.014E-01	-1.740E-21	 1.000E-01	 0.000E+00
    2.7500	 1.527E-01	-1.801E-20	 0.000E+00	 1.027E-01	-2.712E-20	 7.002E-20	 9.850E-03	 1.012E-01	-1.473E-20	 1.000E-01	 0.000E+00
    2.8000	 1.514E-01	-3.599E-20	 0.000E+00	 1.024E-01	-2.520E-20	 8.111E-20	 8.995E-03	 1.011E-01	-1.222E-20	 1.000E-01	 0.000E+00
    2.8500	 1.498E-01	-5.199E-20	 0.000E+00	 1.024E-01	-1.626E-20	 7.054E-20	 8.759E-03	 1.011E-01	-6.041E-21	 1.000E-01	 0.000E+00
    2.9000	 1.479E-01	-4.296E-20	 0.000E+00	 1.025E-01	-2.342E-20	 7.386E-20	 9.112E-03	 1.012E-01	-1.156E-20	 1.000E-01	 0.000E+00
    2.9500	 1.457E-01	-2.614E-20	 0.000E+00	 1.027E-01	-2.258E-20	 5.614E-20	 9.738E-03	 1.013E-01	-1.256E-20	 1.000E-01	 0.000E+00
    3.0000	 1.432E-01	-2.597E-20	 0.000E+00	 1.029E-01	 3.592E-21	-1.176E-20	 1.023E-02	 1.014E-01	 1.597E-21	 1.000E-01	 0.000E+00
    3.0500	 1.403E-01	-3.055E-20	 0.000E+00	 1.030E-01	 2.689E-20	-7.086E-20	 1.026E-02	 1.014E-01	 1.450E-20	 1.000E-01	 0.000E+00
    3.1000	 1.369E-01	-1.967E-20	 0.000E+00	 1.028E-01	 2.118E-20	-6.643E-20	 9.650E-03	 1.013E-01	 1.032E-20	 1.000E-01	 0.000E+00
    3.1500	 1.332E-01	-9.523E-21	 0.000E+00	 1.024E-01	 9.534E-21	-4.514E-20	 8.351E-03	 1.011E-01	 3.387E-21	 1.000E-01	 0.000E+00
    3.2000	 1.292E-01	-2.186E-20	 0.000E+00	 1.019E-01	 1.309E-20	-3.602E-20	 6.524E-03	 1.009E-01	 6.907E-21	 1.000E-01	 0.000E+00
    3.2500	 1.249E-01	-4.225E-20	 0.000E+00	 1.012E-01	 1.187E-20	-2.086E-20	 4.517E-03	 1.006E-01	 7.592E-21	 1.000E-01	 0.000E+00
    3.3000	 1.205E-01	-4.524E-20	 0.000E+00	 1.007E-01	-1.108E-20	 3.455E-20	 2.736E-03	 1.003E-01	-5.346E-21	 1.000E-01	 0.000E+00
    3.3500	 1.160E-01	-4.105E-20	 0.000E+00	 1.003E-01	-2.899E-20	 8.027E-20	 1.464E-03	 1.001E-01	-1.533E-20	 1.000E-01	 0.000E+00
    3.4000	 1.115E-01	-5.020E-20	 0.000E+00	 1.001E-01	-2.214E-20	 6.646E-20	 7.789E-04	 1.000E-01	-1.160E-20	 1.000E-01	 0.000E+00
    3.4500	 1.070E-01	-6.029E-20	 0.000E+00	 1.001E-01	-1.020E-20	 3.950E-20	 5.730E-04	 1.000E-01	-4.279E-21	 1.000E-01	 0.000E+00
    3.5000	 1.024E-01	-4.942E-20	 0.000E+00	 1.002E-01	-1.122E-20	 3.736E-20	 5.990E-04	 1.001E-01	-5.414E-21	 1.000E-01	 0.000E+00
    3.5500	 9.790E-02	-2.999E-20	 0.000E+00	 1.002E-01	-1.089E-20	 2.715E-20	 5.289E-04	 1.001E-01	-5.851E-21	 1.000E-01	 0.000E+00
    3.6000	 9.332E-02	-2.764E-20	 0.000E+00	 1.001E-01	 8.179E-21	-1.968E-20	 5.265E-05	 1.001E-01	 4.745E-21	 1.000E-01	 0.000E+00
    3.6500	 8.869E-02	-3.428E-20	 0.000E+00	 9.980E-02	 2.367E-20	-5.768E-20	-9.975E-04	 9.993E-02	 1.336E-20	 1.000E-01	 0.000E+00
    3.7000	 8.408E-02	-2.746E-20	 0.000E+00	 9.932E-02	 1.395E-20	-4.466E-20	-2.576E-03	 9.970E-02	 6.885E-21	 1.000E-01	 0.000E+00
    3.7500	 7.953E-02	-1.540E-20	 0.000E+00	 9.875E-02	-3.027E-21	-6.061E-21	-4.456E-03	 9.942E-02	-3.234E-21	 1.000E-01	 0.000E+00
    3.8000	 7.514E-02	-2.275E-20	 0.000E+00	 9.818E-02	-5.370E-22	-1.032E-21	-6.315E-03	 9.915E-02	-4.778E-22	 1.000E-01	 0.000E+00
    3.8500	 7.099E-02	-3.925E-20	 0.000E+00	 9.773E-02	 5.497E-21	-2.364E-21	-7.839E-03	 9.893E-02	 3.984E-21	 1.000E-01	 0.000E+00
    3.9000	 6.716E-02	-3.703E-20	 0.000E+00	 9.745E-02	-9.607E-21	 3.315E-20	-8.806E-03	 9.880E-02	-4.047E-21	 1.000E-01	 0.000E+00
    3.9500	 6.367E-02	-2.249E-20	 0.000E+00	 9.737E-02	-2.540E-20	 7.053E-20	-9.160E-03	 9.876E-02	-1.341E-20	 1.000E-01	 0.000E+00
    4.0000	 6.054E-02	-2.244E-20	 0.000E+00	 9.744E-02	-1.452E-20	 4.094E-20	-9.033E-03	 9.881E-02	-7.607E-21	 1.000E-01	 0.000E+00
    4.0500	 5.775E-02	-3.041E-20	 0.000E+00	 9.758E-02	 5.556E-21	-6.926E-21	-8.705E-03	 9.888E-02	 3.527E-21	 1.000E-01	 0.000E+00
    4.1000	 5.526E-02	-2.022E-20	 0.000E+00	 9.767E-02	 3.640E-21	-1.003E-20	-8.489E-03	 9.894E-02	 1.789E-21	 1.000E-01	 0.000E+00
    4.1500	 5.305E-02	 1.342E-21	 0.000E+00	 9.765E-02	-7.343E-21	 7.578E-21	-8.626E-03	 9.893E-02	-5.041E-21	 1.000E-01	 0.000E+00
    4.2000	 5.112E-02	 5.480E-21	 0.000E+00	 9.748E-02	 2.179E-21	-9.126E-21	-9.212E-03	 9.885E-02	 9.019E-22	 1.000E-01	 0.000E+00
    4.2500	 4.950E-02	-4.195E-21	 0.000E+00	 9.718E-02	 1.796E-20	-3.909E-20	-1.017E-02	 9.870E-02	 1.059E-20	 1.000E-01	 0.000E+00
    4.3000	 4.823E-02	-1.523E-22	 0.000E+00	 9.682E-02	 1.084E-20	-2.451E-20	-1.128E-02	 9.852E-02	 6.354E-21	 1.000E-01	 0.000E+00
    4.3500	 4.736E-02	 1.608E-20	 0.000E+00	 9.651E-02	-8.735E-21	 1.577E-20	-1.225E-02	 9.837E-02	-5.328E-21	 1.000E-01	 0.000E+00
    4.4000	 4.695E-02	 1.747E-20	 0.000E+00	 9.634E-02	-8.351E-21	 1.534E-20	-1.279E-02	 9.828E-02	-5.361E-21	 1.000E-01	 0.000E+00
    4.4500	 4.704E-02	 5.931E-21	 0.000E+00	 9.635E-02	 5.353E-21	-1.481E-20	-1.276E-02	 9.829E-02	 2.574E-21	 1.000E-01	 0.000E+00
    4.5000	 4.761E-02	 1.011E-20	 0.000E+00	 9.654E-02	 2.518E-21	-5.741E-23	-1.217E-02	 9.838E-02	 2.013E-21	 1.000E-01	 0.000E+00
    4.5500	 4.864E-02	 2.925E-20	 0.000E+00	 9.685E-02	-1.089E-20	 2.916E-20	-1.117E-02	 9.854E-02	-5.653E-21	 1.000E-01	 0.000E+00
    4.6000	 5.008E-02	 3.459E-20	 0.000E+00	 9.721E-02	-4.222E-21	 1.004E-20	-1.004E-02	 9.872E-02	-2.221E-21	 1.000E-01	 0.000E+00
    4.6500	 5.186E-02	 2.515E-20	 0.000E+00	 9.752E-02	 1.476E-20	-3.539E-20	-9.056E-03	 9.886E-02	 8.245E-21	 1.000E-01	 0.000E+00
    4.7000	 5.395E-02	 2.877E-20	 0.000E+00	 9.770E-02	 1.251E-20	-3.873E-20	-8.414E-03	 9.895E-02	 5.975E-21	 1.000E-01	 0.000E+00
    4.7500	 5.632E-02	 4.705E-20	 0.000E+00	 9.775E-02	-5.039E-21	 5.080E-21	-8.175E-03	 9.897E-02	-3.393E-21	 1.000E-01	 0.000E+00
    4.8000	 5.895E-02	 5.108E-20	 0.000E+00	 9.771E-02	-4.366E-21	 6.413E-21	-8.239E-03	 9.894E-02	-2.832E-21	 1.000E-01	 0.000E+00
    4.8500	 6.187E-02	 3.929E-20	 0.000E+00	 9.763E-02	 9.899E-21	-2.310E-20	-8.382E-03	 9.890E-02	 5.612E-21	 1.000E-01	 0.000E+00
    4.9000	 6.510E-02	 4.003E-20	 0.000E+00	 9.761E-02	 6.650E-21	-1.775E-20	-8.340E-03	 9.888E-02	 3.660E-21	 1.000E-01	 0.000E+00
    4.9500	 6.865E-02	 5.744E-20	 0.000E+00	 9.772E-02	-9.230E-21	 2.162E-20	-7.895E-03	 9.893E-02	-4.947E-21	 1.000E-01	 0.000E+00
    5.0000	 7.251E-02	 6.320E-20	 0.000E+00	 9.799E-02	-5.109E-21	 1.207E-20	-6.946E-03	 9.905E-02	-2.787E-21	 1.000E-01	 0.000E+00
    5.0500	 7.664E-02	 5.296E-20	 0.000E+00	 9.841E-02	 1.298E-20	-3.677E-20	-5.546E-03	 9.925E-02	 6.756E-21	 1.000E-01	 0.000E+00
    5.1000	 8.099E-02	 5.360E-20	 0.000E+00	 9.891E-02	 1.410E-20	-4.274E-20	-3.883E-03	 9.950E-02	 6.869E-21	 1.000E-01	 0.000E+00
    5.1500	 8.548E-02	 6.933E-20	 0.000E+00	 9.941E-02	 3.069E-23	-1.177E-20	-2.217E-03	 9.974E-02	-9.652E-22	 1.000E-01	 0.000E+00
    5.2000	 9.004E-02	 7.258E-20	 0.000E+00	 9.983E-02	 1.167E-21	-1.226E-20	-7.919E-04	 9.994E-02	-1.159E-22	 1.000E-01	 0.000E+00
    5.2500	 9.460E-02	 5.732E-20	 0.000E+00	 1.001E-01	 1.531E-20	-4.118E-20	 2.377E-04	 1.001E-01	 8.208E-21	 1.000E-01	 0.000E+00
    5.3000	 9.913E-02	 5.097E-20	 0.000E+00	 1.003E-01	 1.124E-20	-2.534E-20	 8.565E-04	 1.001E-01	 6.636E-21	 1.000E-01	 0.000E+00
    5.3500	 1.036E-01	 6.076E-20	 0.000E+00	 1.003E-01	-8.505E-21	 1.861E-20	 1.186E-03	 1.002E-01	-4.885E-21	 1.000E-01	 0.000E+00
    5.4000	 1.080E-01	 6.183E-20	 0.000E+00	 1.004E-01	-1.188E-20	 2.543E-20	 1.438E-03	 1.002E-01	-6.952E-21	 1.000E-01	 0.000E+00
    5.4500	 1.124E-01	 4.689E-20	 0.000E+00	 1.005E-01	 3.322E-21	-7.734E-21	 1.845E-03	 1.002E-01	 1.692E-21	 1.000E-01	 0.000E+00
    5.5000	 1.168E-01	 4.252E-20	 0.000E+00	 1.007E-01	 4.870E-21	-1.082E-20	 2.577E-03	 1.003E-01	 2.693E-21	 1.000E-01	 0.000E+00
    5.5500	 1.210E-01	 5.688E-20	 0.000E+00	 1.010E-01	-8.155E-21	 1.859E-20	 3.688E-03	 1.004E-01	-4.454E-21	 1.000E-01	 0.000E+00
    5.6000	 1.252E-01	 6.222E-20	 0.000E+00	 1.014E-01	-2.461E-21	-7.897E-22	 5.096E-03	 1.006E-01	-1.876E-21	 1.000E-01	 0.000E+00
    5.6500	 1.292E-01	 4.864E-20	 0.000E+00	 1.019E-01	 2.013E-20	-5.327E-20	 6.609E-03	 1.009E-01	 1.089E-20	 1.000E-01	 0.000E+00
    5.7000	 1.329E-01	 4.081E-20	 0.000E+00	 1.023E-01	 2.395E-20	-6.447E-20	 7.992E-03	 1.011E-01	 1.288E-20	 1.000E-01	 0.000E+00
    5.7500	 1.364E-01	 4.882E-20	 0.000E+00	 1.026E-01	 4.229E-21	-2.345E-20	 9.039E-03	 1.012E-01	 1.128E-21	 1.000E-01	 0.000E+00
    5.8000	 1.395E-01	 4.761E-20	 0.000E+00	 1.028E-01	-4.808E-21	-2.798E-21	 9.639E-03	 1.013E-01	-4.278E-21	 1.000E-01	 0.000E+00
    5.8500	 1.422E-01	 2.569E-20	 0.000E+00	 1.028E-01	 6.454E-21	-1.850E-20	 9.812E-03	 1.013E-01	 3.306E-21	 1.000E-01	 0.000E+00
    5.9000	 1.445E-01	 9.134E-21	 0.000E+00	 1.027E-01	 6.819E-21	-7.766E-21	 9.697E-03	 1.013E-01	 4.685E-21	 1.000E-01	 0.000E+00
    5.9500	 1.465E-01	 1.322E-20	 0.000E+00	 1.026E-01	-1.400E-20	 4.377E-20	 9.502E-03	 1.012E-01	-6.593E-21	 1.000E-01	 0.000E+00
    6.0000	 1.482E-01	 1.483E-20	 0.000E+00	 1.026E-01	-2.236E-20	 6.125E-20	 9.435E-03	 1.012E-01	-1.177E-20	 1.000E-01	 0.000E+00
    6.0500	 1.496E-01	-3.836E-22	 0.000E+00	 1.027E-01	-5.194E-21	 1.730E-20	 9.629E-03	 1.012E-01	-2.572E-21	 1.000E-01	 0.000E+00
    6.1000	 1.506E-01	-9.565E-21	 0.000E+00	 1.028E-01	 6.628E-21	-1.780E-20	 1.011E-02	 1.013E-01	 3.284E-21	 1.000E-01	 0.000E+00
    6.1500	 1.513E-01	 1.477E-21	 0.000E+00	 1.030E-01	-7.420E-22	-1.680E-21	 1.076E-02	 1.014E-01	-8.035E-22	 1.000E-01	 0.000E+00
    6.2000	 1.516E-01	 8.502E-21	 0.000E+00	 1.032E-01	-1.452E-21	-4.581E-21	 1.141E-02	 1.015E-01	-1.551E-21	 1.000E-01	 0.000E+00
    6.2500	 1.515E-01	-5.884E-21	 0.000E+00	 1.034E-01	 1.658E-20	-4.590E-20	 1.185E-02	 1.016E-01	 8.778E-21	 1.000E-01	 0.000E+00
    6.3000	 1.509E-01	-2.104E-20	 0.000E+00	 1.034E-01	 2.406E-20	-6.161E-20	 1.191E-02	 1.016E-01	 1.302E-20	 1.000E-01	 0.000E+00
    6.3500	 1.499E-01	-1.937E-20	 0.000E+00	 1.033E-01	 4.454E-21	-1.551E-20	 1.155E-02	 1.015E-01	 2.257E-21	 1.000E-01	 0.000E+00
    6.4000	 1.485E-01	-2.077E-20	 0.000E+00	 1.031E-01	-1.265E-20	 3.000E-20	 1.080E-02	 1.014E-01	-7.191E-21	 1.000E-01	 0.000E+00
    6.4500	 1.466E-01	-4.231E-20	 0.000E+00	 1.028E-01	-7.171E-21	 2.349E-20	 9.825E-03	 1.013E-01	-3.617E-21	 1.000E-01	 0.000E+00
    6.5000	 1.444E-01	-6.176E-20	 0.000E+00	 1.024E-01	-4.048E-21	 2.027E-20	 8.821E-03	 1.011E-01	-1.447E-21	 1.000E-01	 0.000E+00
    6.5500	 1.419E-01	-5.879E-20	 0.000E+00	 1.022E-01	-1.896E-20	 5.610E-20	 7.968E-03	 1.010E-01	-9.736E-21	 1.000E-01	 0.000E+00
    6.6000	 1.391E-01	-5.249E-20	 0.000E+00	 1.020E-01	-2.483E-20	 7.184E-20	 7.370E-03	 1.009E-01	-1.269E-20	 1.000E-01	 0.000E+00
    6.6500	 1.361E-01	-6.176E-20	 0.000E+00	 1.019E-01	-7.638E-21	 3.223E-20	 7.024E-03	 1.009E-01	-2.969E-21	 1.000E-01	 0.000E+00
    6.7000	 1.329E-01	-6.973E-20	 0.000E+00	 1.019E-01	 6.874E-21	-9.619E-21	 6.823E-03	 1.009E-01	 4.516E-21	 1.000E-01	 0.000E+00
    6.7500	 1.294E-01	-5.897E-20	 0.000E+00	 1.019E-01	 1.768E-21	-8.503E-21	 6.595E-03	 1.009E-01	 5.305E-22	 1.000E-01	 0.000E+00
    6.8000	 1.256E-01	-4.878E-20	 0.000E+00	 1.018E-01	-7.208E-22	-8.268E-21	 6.164E-03	 1.008E-01	-1.476E-21	 1.000E-01	 0.000E+00
    6.8500	 1.216E-01	-5.971E-20	 0.000E+00	 1.016E-01	 1.341E-20	-3.873E-20	 5.406E-03	 1.007E-01	 6.816E-21	 1.000E-01	 0.000E+00
    6.9000	 1.175E-01	-7.435E-20	 0.000E+00	 1.012E-01	 1.823E-20	-4.473E-20	 4.300E-03	 1.006E-01	 1.000E-20	 1.000E-01	 0.000E+00
    6.9500	 1.131E-01	-7.173E-20	 0.000E+00	 1.008E-01	-2.114E-21	 5.038E-21	 2.925E-03	 1.004E-01	-1.065E-21	 1.000E-01	 0.000E+00
    7.0000	 1.086E-01	-6.754E-20	 0.000E+00	 1.004E-01	-1.904E-20	 5.586E-20	 1.443E-03	 1.002E-01	-9.660E-21	 1.000E-01	 0.000E+00
    7.0500	 1.041E-01	-8.185E-20	 0.000E+00	 9.998E-02	-1.244E-20	 4.641E-20	 4.034E-05	 9.998E-02	-5.424E-21	 1.000E-01	 0.000E+00
    7.1000	 9.957E-02	-9.623E-20	 0.000E+00	 9.964E-02	-6.717E-21	 2.889E-20	-1.132E-03	 9.982E-02	-2.853E-21	 1.000E-01	 0.000E+00
    7.1500	 9.511E-02	-8.755E-20	 0.000E+00	 9.940E-02	-1.933E-20	 5.551E-20	-2.001E-03	 9.971E-02	-1.023E-20	 1.000E-01	 0.000E+00
    7.2000	 9.074E-02	-7.190E-20	 0.000E+00	 9.925E-02	-2.501E-20	 6.767E-20	-2.595E-03	 9.965E-02	-1.338E-20	 1.000E-01	 0.000E+00
    7.2500	 8.648E-02	-7.258E-20	 0.000E+00	 9.915E-02	-6.274E-21	 2.416E-20	-3.030E-03	 9.961E-02	-2.648E-21	 1.000E-01	 0.000E+00
    7.3000	 8.232E-02	-7.669E-20	 0.000E+00	 9.905E-02	 1.233E-20	-2.165E-20	-3.462E-03	 9.957E-02	 7.727E-21	 1.000E-01	 0.000E+00
    7.3500	 7.828E-02	-6.252E-20	 0.000E+00	 9.890E-02	 6.540E-21	-1.809E-20	-4.039E-03	 9.950E-02	 3.510E-21	 1.000E-01	 0.000E+00
    7.4000	 7.437E-02	-4.464E-20	 0.000E+00	 9.868E-02	-3.482E-21	 1.094E-21	-4.849E-03	 9.940E-02	-2.634E-21	 1.000E-01	 0.000E+00
    7.4500	 7.062E-02	-4.799E-20	 0.000E+00	 9.837E-02	 5.870E-21	-1.803E-20	-5.888E-03	 9.925E-02	 2.817E-21	 1.000E-01	 0.000E+00
    7.5000	 6.706E-02	-5.981E-20	 0.000E+00	 9.802E-02	 1.510E-20	-3.625E-20	-7.063E-03	 9.908E-02	 8.315E-21	 1.000E-01	 0.000E+00
    7.5500	 6.376E-02	-5.343E-20	 0.000E+00	 9.767E-02	-9.677E-22	 2.336E-21	-8.222E-03	 9.892E-02	-6.464E-22	 1.000E-01	 0.000E+00
    7.6000	 6.076E-02	-3.906E-20	 0.000E+00	 9.738E-02	-2.099E-20	 5.504E-20	-9.201E-03	 9.878E-02	-1.128E-20	 1.000E-01	 0.000E+00
    7.6500	 5.811E-02	-4.165E-20	 0.000E+00	 9.719E-02	-1.556E-20	 5.117E-20	-9.878E-03	 9.869E-02	-7.414E-21	 1.000E-01	 0.000E+00
    7.7000	 5.582E-02	-4.994E-20	 0.000E+00	 9.710E-02	-1.978E-21	 2.125E-20	-1.021E-02	 9.865E-02	 5.395E-22	 1.000E-01	 0.000E+00
    7.7500	 5.392E-02	-3.757E-20	 0.000E+00	 9.711E-02	-7.012E-21	 2.220E-20	-1.025E-02	 9.865E-02	-3.525E-21	 1.000E-01	 0.000E+00
    7.8000	 5.239E-02	-1.418E-20	 0.000E+00	 9.716E-02	-1.555E-20	 3.487E-20	-1.012E-02	 9.869E-02	-9.112E-21	 1.000E-01	 0.000E+00
    7.8500	 5.123E-02	-7.106E-21	 0.000E+00	 9.722E-02	-2.507E-21	 5.046E-21	-9.976E-03	 9.872E-02	-1.578E-21	 1.000E-01	 0.000E+00
    7.9000	 5.042E-02	-9.538E-21	 0.000E+00	 9.724E-02	 1.602E-20	-3.788E-20	-9.937E-03	 9.873E-02	 9.000E-21	 1.000E-01	 0.000E+00
    7.9500	 4.994E-02	 4.124E-21	 0.000E+00	 9.720E-02	 1.099E-20	-3.005E-20	-1.007E-02	 9.871E-02	 5.917E-21	 1.000E-01	 0.000E+00
    8.0000	 4.982E-02	 2.507E-20	 0.000E+00	 9.711E-02	-1.835E-21	-5.977E-21	-1.035E-02	 9.867E-02	-1.940E-21	 1.000E-01	 0.000E+00
    8.0500	 5.006E-02	 2.704E-20	 0.000E+00	 9.700E-02	 4.841E-21	-1.674E-20	-1.069E-02	 9.861E-02	 2.263E-21	 1.000E-01	 0.000E+00
    8.1000	 5.068E-02	 1.810E-20	 0.000E+00	 9.691E-02	 1.494E-20	-3.305E-20	-1.094E-02	 9.856E-02	 8.719E-21	 1.000E-01	 0.000E+00
    8.1500	 5.171E-02	 2.572E-20	 0.000E+00	 9.688E-02	 2.125E-21	-4.776E-21	-1.097E-02	 9.855E-02	 1.216E-21	 1.000E-01	 0.000E+00
    8.2000	 5.315E-02	 4.395E-20	 0.000E+00	 9.696E-02	-1.563E-20	 2.973E-20	-1.069E-02	 9.858E-02	-9.554E-21	 1.000E-01	 0.000E+00
    8.2500	 5.498E-02	 4.659E-20	 0.000E+00	 9.714E-02	-8.056E-21	 1.834E-20	-1.010E-02	 9.867E-02	-4.711E-21	 1.000E-01	 0.000E+00
    8.3000	 5.719E-02	 3.947E-20	 0.000E+00	 9.739E-02	 8.813E-21	-1.498E-20	-9.264E-03	 9.879E-02	 5.615E-21	 1.000E-01	 0.000E+00
    8.3500	 5.974E-02	 4.972E-20	 0.000E+00	 9.768E-02	 4.761E-21	-8.127E-21	-8.309E-03	 9.893E-02	 3.095E-21	 1.000E-01	 0.000E+00
    8.4000	 6.258E-02	 7.204E-20	 0.000E+00	 9.795E-02	-7.530E-21	 1.313E-20	-7.376E-03	 9.906E-02	-4.494E-21	 1.000E-01	 0.000E+00
    8.4500	 6.567E-02	 7.794E-20	 0.000E+00	 9.819E-02	 1.734E-21	-1.256E-20	-6.574E-03	 9.917E-02	 1.314E-22	 1.000E-01	 0.000E+00
    8.5000	 6.899E-02	 7.035E-20	 0.000E+00	 9.836E-02	 1.942E-20	-5.741E-20	-5.949E-03	 9.925E-02	 9.868E-21	 1.000E-01	 0.000E+00
    8.5500	 7.251E-02	 7.657E-20	 0.000E+00	 9.848E-02	 1.537E-20	-4.515E-20	-5.470E-03	 9.930E-02	 7.869E-21	 1.000E-01	 0.000E+00
    8.6000	 7.623E-02	 9.420E-20	 0.000E+00	 9.858E-02	-1.352E-21	-8.585E-21	-5.042E-03	 9.934E-02	-1.753E-21	 1.000E-01	 0.000E+00
    8.6500	 8.012E-02	 9.611E-20	 0.000E+00	 9.870E-02	 8.114E-22	-9.133E-21	-4.540E-03	 9.939E-02	-7.795E-23	 1.000E-01	 0.000E+00
    8.7000	 8.419E-02	 8.346E-20	 0.000E+00	 9.889E-02	 1.437E-20	-3.606E-20	-3.855E-03	 9.948E-02	 7.970E-21	 1.000E-01	 0.000E+00
    8.7500	 8.841E-02	 8.400E-20	 0.000E+00	 9.915E-02	 9.858E-21	-2.335E-20	-2.930E-03	 9.960E-02	 5.768E-21	 1.000E-01	 0.000E+00
    8.8000	 9.274E-02	 9.806E-20	 0.000E+00	 9.948E-02	-5.713E-21	 8.619E-21	-1.780E-03	 9.975E-02	-3.524E-21	 1.000E-01	 0.000E+00
    8.8500	 9.715E-02	 9.906E-20	 0.000E+00	 9.986E-02	-3.241E-21	-2.615E-21	-4.925E-04	 9.993E-02	-2.888E-21	 1.000E-01	 0.000E+00
    8.9000	 1.016E-01	 8.577E-20	 0.000E+00	 1.002E-01	 1.243E-20	-3.684E-20	 8.076E-04	 1.001E-01	 6.177E-21	 1.000E-01	 0.000E+00
    8.9500	 1.060E-01	 8.471E-20	 0.000E+00	 1.006E-01	 1.089E-20	-3.019E-20	 1.993E-03	 1.003E-01	 5.870E-21	 1.000E-01	 0.000E+00
    9.0000	 1.103E-01	 9.727E-20	 0.000E+00	 1.009E-01	-2.614E-21	 1.104E-21	 2.975E-03	 1.004E-01	-1.796E-21	 1.000E-01	 0.000E+00
    9.0500	 1.145E-01	 9.722E-20	 0.000E+00	 1.011E-01	-1.207E-24	-5.038E-21	 3.732E-03	 1.005E-01	-2.384E-22	 1.000E-01	 0.000E+00
    9.1000	 1.185E-01	 8.138E-20	 0.000E+00	 1.012E-01	 1.487E-20	-3.963E-20	 4.307E-03	 1.006E-01	 8.010E-21	 1.000E-01	 0.000E+00
    9.1500	 1.224E-01	 7.622E-20	 0.000E+00	 1.013E-01	 1.198E-20	-3.568E-20	 4.796E-03	 1.006E-01	 6.055E-21	 1.000E-01	 0.000E+00
    9.2000	 1.261E-01	 8.535E-20	 0.000E+00	 1.015E-01	-3.831E-21	-1.904E-21	 5.308E-03	 1.007E-01	-3.147E-21	 1.000E-01	 0.000E+00
    9.2500	 1.297E-01	 8.269E-20	 0.000E+00	 1.016E-01	-2.131E-21	-4.320E-21	 5.932E-03	 1.008E-01	-2.178E-21	 1.000E-01	 0.000E+00
    9.3000	 1.330E-01	 6.404E-20	 0.000E+00	 1.019E-01	 1.316E-20	-3.503E-20	 6.701E-03	 1.009E-01	 7.173E-21	 1.000E-01	 0.000E+00
    9.3500	 1.361E-01	 5.529E-20	 0.000E+00	 1.021E-01	 1.165E-20	-2.891E-20	 7.586E-03	 1.010E-01	 6.560E-21	 1.000E-01	 0.000E+00
    9.4000	 1.389E-01	 6.191E-20	 0.000E+00	 1.024E-01	-5.000E-21	 8.151E-21	 8.501E-03	 1.011E-01	-3.050E-21	 1.000E-01	 0.000E+00
    9.4500	 1.415E-01	 5.764E-20	 0.000E+00	 1.026E-01	-4.605E-21	 6.984E-21	 9.332E-03	 1.012E-01	-2.900E-21	 1.000E-01	 0.000E+00
    9.5000	 1.437E-01	 3.599E-20	 0.000E+00	 1.028E-01	 1.237E-20	-2.987E-20	 9.972E-03	 1.013E-01	 6.802E-21	 1.000E-01	 0.000E+00
    9.5500	 1.455E-01	 2.345E-20	 0.000E+00	 1.029E-01	 1.160E-20	-3.144E-20	 1.036E-02	 1.014E-01	 6.180E-21	 1.000E-01	 0.000E+00
    9.6000	 1.469E-01	 2.789E-20	 0.000E+00	 1.030E-01	-6.692E-21	 1.120E-20	 1.048E-02	 1.014E-01	-4.211E-21	 1.000E-01	 0.000E+00
    9.6500	 1.480E-01	 2.391E-20	 0.000E+00	 1.029E-01	-1.019E-20	 2.365E-20	 1.041E-02	 1.014E-01	-5.706E-21	 1.000E-01	 0.000E+00
    9.7000	 1.486E-01	 2.615E-21	 0.000E+00	 1.029E-01	 5.015E-21	-6.106E-21	 1.024E-02	 1.013E-01	 3.438E-21	 1.000E-01	 0.000E+00
    9.7500	 1.489E-01	-1.100E-20	 0.000E+00	 1.028E-01	 7.857E-21	-1.472E-20	 1.006E-02	 1.013E-01	 4.771E-21	 1.000E-01	 0.000E+00
    9.8000	 1.489E-01	-6.697E-21	 0.000E+00	 1.028E-01	-7.110E-21	 1.584E-20	 9.969E-03	 1.013E-01	-4.061E-21	 1.000E-01	 0.000E+00
    9.8500	 1.485E-01	-8.811E-21	 0.000E+00	 1.028E-01	-1.019E-20	 2.249E-20	 9.973E-03	 1.013E-01	-5.993E-21	 1.000E-01	 0.000E+00
    9.9000	 1.478E-01	-2.890E-20	 0.000E+00	 1.028E-01	 5.208E-21	-1.379E-20	 1.004E-02	 1.013E-01	 2.683E-21	 1.000E-01	 0.000E+00
    9.9500	 1.466E-01	-4.330E-20	 0.000E+00	 1.028E-01	 9.823E-21	-2.323E-20	 1.008E-02	 1.013E-01	 5.469E-21	 1.000E-01	 0.000E+00
   10.0000	 1.452E-01	-4.030E-20	 0.000E+00	 1.028E-01	-4.481E-21	 1.203E-20	 9.996E-03	 1.013E-01	-2.348E-21	 1.000E-01	 0.000E+00
   10.0500	 1.433E-01	-4.328E-20	 0.000E+00	 1.028E-01	-9.614E-21	 2.491E-20	 9.714E-03	 1.013E-01	-5.103E-21	 1.000E-01	 0.000E+00
   10.1000	 1.411E-01	-6.413E-20	 0.000E+00	 1.026E-01	 1.961E-21	 1.657E-21	 9.193E-03	 1.012E-01	 1.591E-21	 1.000E-01	 0.000E+00
   10.1500	 1.386E-01	-7.966E-20	 0.000E+00	 1.024E-01	 2.569E-21	 1.712E-21	 8.453E-03	 1.011E-01	 2.076E-21	 1.000E-01	 0.000E+00
   10.2000	 1.358E-01	-7.662E-20	 0.000E+00	 1.021E-01	-1.371E-20	 3.810E-20	 7.564E-03	 1.010E-01	-7.261E-21	 1.000E-01	 0.000E+00
   10.2500	 1.326E-01	-7.676E-20	 0.000E+00	 1.018E-01	-1.865E-20	 4.876E-20	 6.623E-03	 1.009E-01	-1.023E-20	 1.000E-01	 0.000E+00
   10.3000	 1.293E-01	-9.331E-20	 0.000E+00	 1.016E-01	-3.808E-21	 1.842E-20	 5.723E-03	 1.007E-01	-1.387E-21	 1.000E-01	 0.000E+00
   10.3500	 1.257E-01	-1.045E-19	 0.000E+00	 1.014E-01	 2.216E-21	 4.652E-21	 4.928E-03	 1.006E-01	 2.035E-21	 1.000E-01	 0.000E+00
   10.4000	 1.220E-01	-9.583E-20	 0.000E+00	 1.012E-01	-1.107E-20	 3.361E-20	 4.250E-03	 1.005E-01	-5.435E-21	 1.000E-01	 0.000E+00
   10.4500	 1.182E-01	-9.012E-20	 0.000E+00	 1.010E-01	-1.400E-20	 3.958E-20	 3.649E-03	 1.005E-01	-7.293E-21	 1.000E-01	 0.000E+00
   10.5000	 1.142E-01	-1.035E-19	 0.000E+00	 1.009E-01	 3.373E-21	-1.850E-21	 3.050E-03	 1.004E-01	 2.375E-21	 1.000E-01	 0.000E+00
   10.5500	 1.101E-01	-1.144E-19	 0.000E+00	 1.007E-01	 1.002E-20	-2.090E-20	 2.369E-03	 1.003E-01	 5.744E-21	 1.000E-01	 0.000E+00
   10.6000	 1.059E-01	-1.061E-19	 0.000E+00	 1.005E-01	-6.760E-21	 1.582E-20	 1.543E-03	 1.002E-01	-3.918E-21	 1.000E-01	 0.000E+00
   10.6500	 1.016E-01	-9.945E-20	 0.000E+00	 1.002E-01	-1.696E-20	 4.561E-20	 5.544E-04	 1.001E-01	-9.103E-21	 1.000E-01	 0.000E+00
   10.7000	 9.731E-02	-1.119E-19	 0.000E+00	 9.985E-02	-5.238E-21	 2.440E-20	-5.610E-04	 9.993E-02	-1.899E-21	 1.000E-01	 0.000E+00
   10.7500	 9.304E-02	-1.226E-19	 0.000E+00	 9.951E-02	 8.058E-22	 1.272E-20	-1.727E-03	 9.977E-02	 1.791E-21	 1.000E-01	 0.000E+00
   10.8000	 8.883E-02	-1.121E-19	 0.000E+00	 9.919E-02	-1.398E-20	 4.514E-20	-2.850E-03	 9.962E-02	-6.740E-21	 1.000E-01	 0.000E+00
   10.8500	 8.472E-02	-9.951E-20	 0.000E+00	 9.890E-02	-2.246E-20	 6.366E-20	-3.848E-03	 9.948E-02	-1.174E-20	 1.000E-01	 0.000E+00
   10.9000	 8.077E-02	-1.041E-19	 0.000E+00	 9.867E-02	-8.130E-21	 2.677E-20	-4.675E-03	 9.938E-02	-4.168E-21	 1.000E-01	 0.000E+00
   10.9500	 7.698E-02	-1.077E-19	 0.000E+00	 9.849E-02	 3.737E-21	-1.862E-21	-5.333E-03	 9.930E-02	 2.559E-21	 1.000E-01	 0.000E+00
   11.0000	 7.340E-02	-9.109E-20	 0.000E+00	 9.835E-02	-5.134E-21	 1.711E-20	-5.870E-03	 9.923E-02	-2.429E-21	 1.000E-01	 0.000E+00
   11.0500	 7.003E-02	-7.288E-20	 0.000E+00	 9.822E-02	-1.165E-20	 2.973E-20	-6.358E-03	 9.918E-02	-6.321E-21	 1.000E-01	 0.000E+00